792
Atoms. Timestep: 0
A 0.0000 0.0000 0.0000
A 0.0000 0.0000 3.4000
A 0.6918 -1.4941 6.3747
A 0.5695 -1.5691 9.7717
A 0.1551 -1.6124 13.1461
A 0.5646 -2.2838 16.4539
A 1.3599 -2.9262 19.6965
A 2.4671 -1.3903 22.5206
A 3.8549 -0.8029 25.5684
A 3.7830 0.1392 28.8345
A 2.8637 1.5209 31.8019
A 0.7566 2.7941 34.1469
A -1.3133 4.9635 35.7498
A -2.1950 6.1683 38.8045
C -3.8534 6.6712 41.7297
C -4.9834 7.9257 44.6809
C -5.5521 9.1848 47.7876
C -7.0827 11.1926 50.0648
C -9.6046 11.9785 52.2054
C -12.1529 11.3542 54.3680
C -14.2749 11.0871 57.0110
C -16.4586 11.2619 59.6112
C -19.5889 11.5128 60.9142
C -22.1588 13.3372 62.1901
C -23.5473 16.1592 63.4816
C -23.8094 19.5480 63.3975
C -23.3646 22.7942 62.4895
C -23.4979 26.1743 62.1469
N -23.2210 29.5582 62.3261
N -21.4343 32.4507 62.2879
N -19.6763 35.2908 62.9227
N -17.9614 38.2049 62.5655
N -16.3735 40.3877 60.4982
N -16.4977 42.7206 58.0280
N -17.5830 45.1077 55.8638
N -19.4726 47.0658 53.8253
K -21.2200 49.4056 52.0842
K -21.8486 52.4000 50.6013
K -22.7479 54.9981 48.6010
K -24.5299 57.3978 46.9805
K -25.9777 60.0231 45.3770
K -26.0023 63.2082 44.1875
K -27.4894 66.1508 43.3572
K -27.4697 69.5456 43.1698
K -26.4420 72.6173 44.2033
K -24.4171 74.7665 45.8888
K -22.5996 76.0142 48.4772
K -21.0033 75.8829 51.4763
K -20.0010 76.0051 54.7229
K -18.6036 77.4141 57.4837
K -16.6685 79.1090 59.7068
K -15.2025 80.2070 62.5713
K -15.3232 81.8898 65.5232
K -16.6912 84.0796 67.7353
K -17.0657 86.6134 69.9713
K -16.5757 88.9956 72.3473
A -16.9972 91.7855 74.2442
A -16.5815 94.8572 75.6414
A -15.8780 98.1824 75.5507
A -15.4976 101.2674 74.1730
A -15.1594 103.1398 71.3552
K -15.9387 103.0820 68.0463
K -18.0587 101.4352 65.9597
K -18.5370 99.4282 63.2573
K -20.4928 97.5927 61.1677
K -22.9525 96.1134 59.3453
K -25.7233 94.7354 57.9368
K -27.5899 92.1131 56.8416
K -29.3544 89.4185 55.7528
K -30.1315 86.2442 54.8147
K -30.3717 82.8889 54.3208
K -29.8493 79.5844 54.9269
K -28.5445 76.4496 55.1028
K -26.7830 73.6088 55.7249
K -24.5721 71.0258 55.7187
K -22.1922 68.6639 55.1555
K -19.7469 66.5370 56.1833
K -17.1993 64.5891 55.0538
K -15.6752 63.5203 52.2087
K -13.4278 61.5236 50.6204
F -11.8795 61.4947 47.5935
F -10.0252 61.2399 44.7551
F -6.9227 60.7212 43.4644
F -3.5325 60.4721 43.4003
F -0.5896 59.2338 42.2315
P 1.9447 57.5882 40.6730
P 3.6208 54.6511 41.0252
P 5.4345 51.7833 40.8096
P 7.6592 49.2186 40.6283
P 9.8892 46.6832 41.0270
P 12.6475 44.7326 40.6431
P 14.6562 42.5624 38.9653
P 15.1762 40.2935 36.4870
P 15.3645 39.3837 33.2165
P 14.7990 40.4179 30.0273
P 14.5912 40.9646 26.6780
P 13.3098 42.0730 23.7302
P 12.0669 42.2807 20.5723
P 9.9332 43.3540 18.1526
A 8.2363 44.1731 15.3225
A 6.4624 44.2238 12.4223
A 4.0271 43.5238 10.1554
A 1.2614 42.0993 8.7835
A -1.3923 40.4588 10.1350
A -2.7082 38.9122 12.8620
A -2.4347 37.7693 16.0524
A -1.1291 38.3479 19.1380
A 0.0916 39.8647 21.9253
A 0.8184 40.8078 25.1100
P 2.1975 42.0190 27.9720
P 3.2373 45.1589 28.7593
P 5.0829 47.0926 30.8604
P 5.8467 49.8424 32.7084
P 6.0646 52.1264 35.2176
P 7.2265 54.3509 37.5113
P 8.7761 56.1881 39.9162
S 9.3963 58.9468 41.8044
S 9.9082 60.0470 44.9805
S 11.6310 60.9438 47.7711
S 11.1079 62.4579 50.7701
S 9.1001 63.8653 53.1256
S 6.2567 63.8516 54.9896
S 3.2915 64.1872 56.6191
S -0.0133 63.7134 57.2624
S -2.9716 64.8848 58.4610
S -4.3374 67.9968 58.3621
S -5.0561 71.3113 58.6024
S -6.2677 74.2624 57.4266
S -6.0169 77.6512 57.3106
S -5.4737 80.9881 57.6708
S -5.0984 84.3641 57.5228
S -4.9403 87.2635 55.7541
S -4.8893 90.4890 54.6801
S -3.9980 93.7126 55.2918
S -4.0115 96.9887 56.2011
S -3.5456 100.3385 56.5504
S -4.5476 103.2447 58.0030
S -4.9474 105.8218 60.1845
S -4.5638 107.4224 63.1595
S -3.4789 108.9503 65.9965
S -2.0213 110.3426 68.7346
S -0.3888 111.6975 71.3915
S 1.6535 112.2651 74.0499
S 3.9466 112.7721 76.5085
S 5.7654 112.2967 79.3415
S 8.0608 112.4224 81.8465
S 8.4000 111.8635 85.1830
S 8.5452 110.9862 88.4647
S 9.4639 110.5766 91.7125
S 8.4631 111.6874 94.7661
S 8.4207 112.5510 98.0543
A 9.2545 112.1137 101.3214
A 10.7848 110.5206 103.9060
S 13.8005 109.6704 105.2262
S 17.0001 110.6597 104.6399
S 19.0559 111.6040 102.1017
S 21.8772 113.4869 101.8671
S 22.2837 116.7655 101.0638
S 21.5041 119.9702 100.2377
S 19.6383 122.5995 99.1583
S 16.4515 122.8529 98.0007
S 13.8844 122.7305 95.7747
S 11.6654 123.1994 93.2417
S 9.2447 122.9147 90.8712
S 7.2726 122.1829 88.2000
S 5.1853 120.1799 86.4137
S 3.4875 117.6870 84.8442
S 1.5540 114.8903 84.8501
S -0.8012 112.4383 84.8261
S -2.1870 109.5770 83.6208
S -3.8875 107.3614 81.6819
S -4.1499 104.9746 79.2748
S -4.6983 104.0021 76.0633
S -4.9043 102.3639 73.0912
S -3.5941 101.4201 70.0991
S -3.8285 98.8879 67.8424
S -1.9983 97.1777 65.5432
S -0.4238 94.8643 63.6122
S 0.4723 91.9245 62.1580
S 0.9996 89.3697 59.9774
S 1.5618 88.2585 56.8137
S 2.2639 85.7557 54.6222
S 3.8332 83.1306 53.1367
S 4.2970 80.1974 51.4810
S 4.6777 77.2515 49.8269
S 5.0717 73.9282 49.2261
S 5.1530 70.7252 48.0884
S 6.2189 67.5730 47.3907
S 5.8787 64.2928 46.5631
S 4.9825 61.0280 46.2503
F 3.9285 57.8745 46.9607
F 1.6769 55.3305 47.0965
F -1.3668 53.8185 47.1935
A -3.3780 51.3345 48.3532
A -4.8660 48.8512 50.1363
A -7.0321 46.9830 51.9743
A -8.8264 45.0321 54.1036
O -10.5749 43.0951 56.2832
O -11.8938 39.9877 55.8774
O -14.4119 37.7771 56.4538
O -17.6588 37.7034 55.4477
C -20.7316 37.4094 54.0224
C -22.4854 36.4947 51.2570
C -24.5399 34.2226 49.7816
C -26.5268 31.7507 48.5561
C -29.4758 30.0747 48.3226
C -31.2290 28.3255 45.9931
C -31.8158 26.7655 43.0297
C -31.4921 24.7267 40.3281
C -31.3825 22.0048 38.2936
C -29.0662 21.3210 35.9004
C -25.9033 21.5483 34.6738
C -22.6284 20.7317 35.0836
C -19.2663 20.2286 35.1424
C -16.0077 19.6476 35.9196
C -12.8250 18.5324 35.4875
C -10.1056 19.8813 33.9561
C -10.0174 20.6655 30.6490
C -9.6734 20.4105 27.2761
C -10.2372 20.3340 23.9240
C -10.6135 20.0551 20.5564
C -10.9145 19.6165 17.1983
C -9.9321 18.2033 14.2661
C -9.0993 19.3046 11.1590
C -7.5596 20.3439 8.3114
C -4.5525 21.1076 6.9206
C -1.4182 20.7080 8.1762
C 1.3386 18.9882 9.1773
C 3.9589 17.4192 10.6714
C 5.8572 17.0348 13.4658
C 5.1596 16.6653 16.7729
C 3.4884 15.9605 19.6487
C 1.9301 14.9556 22.4986
C -0.7831 14.2255 24.4131
C -2.7443 13.9497 27.1768
C -5.8245 14.5472 28.4866
C -9.1108 14.7933 29.3231
C -12.0465 16.2828 28.4731
C -14.6441 18.3001 27.6109
C -17.2956 20.1416 28.6778
C -19.4240 21.9297 30.6355
C -21.0880 24.3888 32.2920
C -22.9924 24.9385 35.0544
C -23.6698 24.3110 38.3267
C -24.7569 24.6799 41.5270
C -25.8871 25.1599 44.6975
C -24.7599 27.0313 47.3028
C -24.7322 27.9464 50.5772
C -25.4312 30.4130 52.8104
C -25.2553 33.1079 54.8761
N -24.9291 35.1855 57.5476
N -23.7373 36.9333 60.2093
N -23.1304 38.4157 63.2083
N -22.6156 39.3101 66.4479
N -21.2137 40.3437 69.3679
N -18.4481 40.4108 71.3446
N -15.7293 40.5790 73.3792
N -13.4511 41.1846 75.8293
N -11.3992 40.9400 78.5293
N -9.7884 39.3998 81.0970
N -8.0107 36.6801 82.0985
O -5.5029 34.4655 82.7037
O -3.8163 31.7514 83.8651
O -1.7848 29.0651 84.3311
O 0.3256 26.4000 84.2710
O 2.5815 23.8811 84.6257
O 5.3273 22.0869 85.5210
O 7.2755 19.3027 85.6341
O 8.8536 16.2990 85.8515
O 10.2987 13.2474 85.4521
O 13.1385 11.4014 85.1559
O 15.4603 9.4748 86.7235
O 18.2635 7.5732 87.0165
O 21.6067 7.0562 86.6759
O 24.6539 6.2200 85.4208
O 27.6290 7.1195 84.0425
O 30.9334 7.4193 83.3004
O 33.7887 6.0819 82.0281
O 36.7288 6.4130 80.3528
O 39.5835 6.8412 78.5565
A 41.3918 5.9605 75.8152
A 42.3999 3.2121 74.0860
A 41.3595 -0.0205 73.9201
O 38.9053 -2.1156 74.9914
O 35.8150 -3.5238 74.8268
O 32.4192 -3.6305 74.6945
O 29.0717 -3.0376 74.7498
O 26.9960 -0.4526 73.9957
O 24.5562 1.9138 73.9066
O 23.7196 5.1316 73.1953
O 22.3465 8.0691 72.1728
O 21.1764 11.1935 71.5175
O 20.4072 14.4520 70.9254
O 20.7686 17.8216 71.1994
O 20.7397 21.1552 71.8671
O 20.7358 24.3897 72.9150
O 20.6489 25.6972 76.0523
O 19.7220 27.7018 78.6374
O 18.4519 29.7512 81.0346
O 15.8611 29.6117 83.2320
O 13.0850 30.3506 85.0507
O 11.1313 32.4975 86.8208
O 8.5458 34.7052 86.8602
O 6.0401 35.3561 89.0642
O 3.4823 36.8560 90.7279
O 0.5461 36.7105 92.4359
O -2.0773 35.5446 94.2575
O -4.8413 35.6835 96.2327
O -7.8093 36.5650 97.6376
K -11.0905 36.7051 96.7575
K -14.3719 37.5880 96.6450
K -16.6378 39.8928 95.5899
K -19.2483 41.9946 95.0171
K -21.1427 44.1348 93.1757
K -21.6390 45.7278 90.2132
K -20.7895 48.4887 88.4200
K -20.9049 50.4929 85.6759
K -20.6665 53.5377 84.1819
K -19.7048 55.8485 81.8807
K -18.3345 57.2582 79.1068
K -17.3470 57.6732 75.8799
A -16.9433 59.2905 72.9166
A -17.7771 61.6889 70.6555
A -18.1786 64.3590 68.5893
A -19.7264 67.3823 68.7444
A -19.7377 70.2236 70.6117
A -19.3952 71.6874 73.6613
A -18.0585 71.1216 76.7359
A -17.4734 69.4459 79.6358
A -17.1805 67.4036 82.3383
A -17.0272 65.0747 84.8106
K -17.1407 61.6976 85.1884
K -16.2630 58.4129 85.1973
K -15.1159 55.3688 84.2085
K -15.4014 52.0184 83.7051
K -16.1473 48.8833 82.6211
N -16.7350 45.5675 82.1521
N -17.2491 42.3647 81.1333
N -16.4629 39.1545 80.3354
N -15.1666 36.5482 78.5786
N -12.8727 34.6117 76.9823
N -11.6498 33.5686 73.9862
C -10.2205 32.2315 71.2060
C -9.8152 30.9548 68.0810
C -10.1929 31.0102 64.7025
C -10.3175 31.4216 61.3298
C -10.2941 29.8882 58.2953
C -9.4079 27.5950 55.9467
C -8.8693 25.2564 53.5382
C -10.1025 23.1630 51.1597
C -12.7013 21.4193 49.8309
C -14.7800 19.8325 47.6581
C -17.3868 18.3363 46.0688
C -19.9294 16.3572 44.9832
C -20.5071 13.1985 43.8657
C -20.8476 9.8878 44.5610
C -21.3261 6.5527 45.0169
C -20.7437 3.9346 47.1065
C -21.8328 0.8111 47.8925
C -21.8150 -2.3202 49.2172
C -20.7871 -4.0288 51.9712
C -19.2465 -5.9240 54.3365
A -18.2984 -7.5350 57.1765
A -16.4199 -9.2434 59.4376
A -15.5352 -10.5798 62.4362
A -15.0282 -12.1610 65.4031
A -15.2569 -13.0991 68.6631
A -15.4176 -12.6685 72.0319
A -15.7631 -12.1589 75.3757
A -16.6419 -11.0496 78.4672
A -16.8326 -10.6471 81.8379
A -19.0755 -9.8931 84.2794
A -21.2381 -9.9654 86.9019
A -22.3080 -9.7281 90.1205
A -24.1953 -10.3970 92.8683
A -25.2222 -10.5184 96.1072
A -23.8606 -10.0311 99.1843
A -21.9331 -10.4473 101.9540
A -19.7305 -10.8878 104.5064
A -17.6100 -11.9938 106.9231
A -17.3497 -11.5736 110.2870
A -16.3884 -10.6725 113.4213
A -16.2684 -8.8980 116.3190
A -15.5603 -7.3151 119.2436
A -15.5812 -5.3521 122.0196
A -17.3121 -3.8325 124.5205
A -18.9205 -4.2570 127.4858
A -21.8858 -5.4218 128.6732
A -24.4698 -7.6270 128.8151
A -27.3158 -9.1048 129.9449
A -29.7095 -10.9870 131.4574
A -32.4766 -11.4868 133.3688
A -35.4568 -12.4606 134.6841
A -38.4679 -12.2460 136.2483
A -41.0231 -12.6226 138.4595
A -42.4135 -12.1050 141.5188
A -43.7130 -13.6950 144.2286
A -44.7230 -16.5393 145.7938
A -46.2131 -19.2453 147.2142
A -46.1246 -20.8444 150.2134
A -44.4704 -22.8512 152.4034
A -42.3892 -24.0757 154.7969
A -40.3574 -26.0755 156.6498
A -38.5417 -27.7669 158.9741
A -37.6891 -29.3657 161.8510
A -37.8954 -30.8944 164.8810
A -39.1978 -31.7141 167.9128
A -39.9893 -32.2894 171.1690
A -41.8656 -31.8131 173.9640
A -43.2074 -32.0407 177.0798
A -43.9918 -32.8662 180.2834
A -44.3829 -32.0688 183.5654
A -44.3929 -31.8106 186.9556
A -45.0787 -32.7642 190.1462
A -44.9033 -34.2629 193.1930
A -44.5163 -35.3781 196.3816
A -43.1875 -37.4570 198.7208
A -42.5686 -40.3295 200.4313
A -42.7277 -41.8826 203.4517
A -43.0827 -44.7918 205.1751
A -42.7340 -46.8317 207.8727
A -43.1945 -49.7401 209.5724
A -44.3201 -50.9593 212.5400
A -44.5157 -53.7924 214.4096
A -45.9011 -55.8176 216.7632
A -47.0744 -56.7907 219.8023
A -49.3206 -57.6513 222.2052
A -50.6809 -58.9773 225.0251
A -52.1715 -59.6117 228.0143
A -53.8229 -61.1338 230.5670
A -55.9102 -61.9828 233.1130
A -58.6494 -60.8585 234.7842
A -61.7161 -61.1931 236.2137
A -64.3769 -60.6486 238.2590
A -66.9765 -60.4300 240.4394
A -68.1724 -60.0621 243.6008
A -70.0471 -60.2974 246.4275
A -70.5798 -61.1626 249.6721
A -71.0076 -61.6508 253.0096
A -71.1693 -63.3000 255.9784
A -71.1758 -65.2454 258.7668
A -69.4992 -66.9965 261.1507
A -67.8300 -68.0612 263.9148
A -66.0840 -68.8376 266.7270
A -63.6574 -69.6076 268.9806
A -61.2134 -70.2565 271.2535
A -58.6952 -69.1340 273.2430
A -56.8406 -68.6517 276.0516
A -54.1502 -67.3285 277.6550
A -52.1670 -65.3874 279.6195
A -50.6628 -62.6765 281.0153
A -48.4668 -60.3975 282.2577
A -46.8192 -57.7133 283.5385
A -45.5987 -55.5033 285.8159
A -43.8303 -53.4767 287.8958
A -42.7320 -52.4092 290.9312
A -41.6967 -50.1983 293.2977
A -41.7377 -47.7386 295.6446
A -41.1181 -45.8809 298.4240
A -40.6610 -45.6151 301.7826
A -39.7162 -44.0356 304.6414
A -37.4190 -42.1063 306.2416
A -34.7490 -41.3432 308.2035
A -32.2971 -41.8796 310.4971
A -29.2602 -41.1166 311.8218
A -26.4608 -39.6667 313.0952
A -25.7727 -36.4291 313.8726
A -27.0401 -33.8914 315.7471
A -28.9734 -31.4138 317.0447
A -28.7118 -29.1808 319.5952
A -30.6495 -28.5948 322.3269
A -33.9534 -29.0024 323.0185
A -36.6631 -29.3685 325.0392
A -39.3807 -29.6405 327.0643
A -41.6330 -30.7192 329.3714
A -43.1756 -30.6377 332.4003
A -45.0136 -32.4591 334.6058
A -45.9223 -34.8210 336.8764
A -47.2088 -36.9813 339.1651
A -48.1067 -39.0151 341.7375
A -46.8367 -40.8834 344.2785
A -46.0542 -42.8799 346.9170
A -45.1583 -45.6115 348.7323
A -44.6824 -48.6466 350.1890
A -42.5061 -49.7425 352.5603
A -40.8496 -50.4508 355.4438
A -39.8760 -49.6690 358.6062
A -38.6935 -49.0899 361.7409
A -37.8825 -49.2741 365.0376
A -37.9875 -48.1410 368.2415
A -37.1669 -46.1604 370.8804
A -34.6392 -44.7428 372.6585
A -32.3278 -43.2436 374.6509
A -31.8390 -42.5038 377.9332
A -31.0603 -41.2985 381.0156
A -29.1756 -40.3796 383.6920
A -28.0524 -39.0531 386.6141
A -27.8549 -37.0544 389.3575
A -27.6705 -34.4678 391.5565
A -26.3217 -32.2641 393.7666
A -26.7505 -29.4585 395.6387
A -26.3126 -26.2548 396.6897
A -25.6431 -23.3720 398.3633
A -25.8772 -20.5722 400.2782
A -24.7299 -19.2749 403.2040
A -24.4717 -17.1088 405.8120
A -24.6558 -14.3933 407.8497
A -25.1711 -13.5263 411.0967
A -24.4952 -11.7915 413.9416
A -23.9381 -11.7185 417.2949
A -23.9658 -12.8187 420.5118
A -22.3152 -13.1239 423.4686
A -21.0999 -12.3324 426.5437
A -19.6282 -11.6360 429.5285
A -19.4093 -12.2149 432.8717
A -19.0497 -10.8903 435.9823
A -20.0015 -11.4141 439.2041
A -19.8348 -13.0097 442.2018
A -20.8162 -14.6665 445.0039
A -21.9692 -17.6666 446.1130
A -23.4148 -20.3540 447.6124
A -25.1837 -22.0764 449.9500
A -26.4454 -23.6699 452.6756
A -27.9743 -25.3582 455.1998
A -28.4971 -26.1038 458.4756
A -29.1800 -27.5198 461.4904
A -31.5848 -27.9538 463.8543
A -34.0248 -27.7851 466.2161
A -35.1414 -28.6254 469.3157
A -36.8893 -29.8449 471.9647
A -37.8290 -31.5351 474.7611
A -38.6298 -33.8214 477.1469
A -38.6799 -35.3858 480.1652
A -39.6470 -35.4200 483.4246
A -40.0656 -36.1079 486.7278
A -40.2287 -37.6136 489.7719
A -38.8664 -38.6982 492.6921
A -36.8728 -39.6563 495.2743
A -34.7412 -40.7289 497.6962
A -32.3271 -39.7744 499.8920
A -30.2674 -38.3419 502.1866
A -29.0002 -36.5595 504.7899
A -29.8396 -34.6664 507.4865
A -30.2379 -32.7395 510.2593
A -31.1453 -33.0720 513.5190
A -30.3732 -33.2250 516.8267
A -30.1604 -31.9790 519.9830
A -29.7754 -30.1448 522.8198
A -29.1492 -28.1287 525.4849
A -28.6032 -25.5726 527.6595
A -27.6776 -24.7189 530.8177
A -27.2055 -24.1320 534.1332
A -26.8120 -25.4696 537.2342
A -25.2228 -26.1661 540.1581
A -25.7282 -24.7499 543.2075
A -26.7910 -23.7826 546.2889
A -27.5926 -22.4759 549.3236
A -28.5586 -21.5786 552.4576
A -30.4612 -21.3754 555.2681
A -33.3198 -20.5078 556.8916
A -36.0526 -19.2138 558.4463
A -37.6278 -17.8539 561.1351
A -39.3982 -17.6147 564.0279
A -41.3308 -17.1532 566.7869
A -42.5306 -18.7837 569.5185
A -42.1766 -19.2617 572.8661
A -43.1387 -20.7982 575.7425
A -43.5938 -22.6124 578.5817
A -43.8933 -25.5174 580.3228
A -43.3815 -28.5954 581.6734
A -42.1683 -31.2217 583.4596
A -41.7372 -33.4661 585.9769
A -40.9533 -36.2548 587.7570
A -39.8173 -38.3289 590.1998
A -38.3701 -38.2948 593.2763
A -37.2019 -38.3554 596.4687
A -36.2839 -39.4822 599.5424
A -35.4568 -41.6304 602.0446
A -34.8424 -43.1516 605.0226
A -33.4997 -45.2893 607.3002
A -33.8930 -47.1124 610.1430
A -33.4279 -49.3000 612.7039
A -32.5538 -49.9495 615.9248
A -30.7908 -50.5442 618.7705
A -28.7389 -50.4956 621.4811
A -28.5688 -49.0466 624.5522
A -28.1643 -47.8576 627.7117
A -28.0108 -45.7670 630.3886
A -27.4663 -44.0093 633.2477
A -28.2965 -43.5228 636.5087
A -28.2901 -43.8333 639.8945
A -28.2960 -44.4293 643.2418
A -27.1343 -43.3192 646.2382
A -26.6976 -42.1695 649.4079
A -27.1644 -41.2316 652.6425
A -25.9780 -41.4722 655.8197
A -24.1384 -40.1148 658.3363
A -23.2999 -39.3777 661.5478
A -22.4276 -38.6293 664.7476
A -20.8851 -37.3848 667.5102
A -20.7074 -36.7953 670.8540
A -20.4852 -37.0247 674.2390
A -20.9557 -36.0829 677.4719
A -20.4111 -35.2013 680.7101
A -19.9687 -34.8003 684.0573
A -19.8937 -35.1630 687.4370
A -20.7940 -34.7061 690.6837
A -22.1176 -34.8131 693.8137
A -23.3538 -36.1663 696.6773
A -25.0051 -36.4157 699.6389
A -25.4279 -35.6811 702.9316
A -26.3517 -35.9216 706.1948
A -27.7023 -35.9064 709.3150
A -28.3046 -36.8076 712.5376
A -28.1628 -36.8955 715.9335
A -26.9450 -37.1874 719.0945
A -24.5842 -38.0915 721.3681
A -22.7638 -38.0257 724.2390
A -20.5372 -37.2281 726.6816
A -18.0858 -37.3761 729.0328
A -16.2098 -37.7372 731.8453
A -13.9983 -38.7958 734.2009
A -12.3227 -38.0849 737.0727
A -10.3504 -36.1371 739.0415
A -9.0352 -34.4775 741.7016
A -7.4779 -32.6872 744.1367
A -6.8605 -31.4618 747.2475
A -5.3813 -29.8143 749.8277
A -3.7874 -27.7131 751.9735
A -4.1309 -26.3523 755.0704
A -3.4183 -25.7864 758.3463
A -3.8063 -25.1959 761.6721
A -4.5894 -24.5658 764.9201
A -5.6888 -22.7764 767.5940
A -7.4428 -21.4309 770.1772
A -7.9723 -19.2367 772.7199
A -7.6077 -16.1460 774.0891
A -6.0480 -14.5737 776.6688
A -5.1633 -13.8847 779.8786
A -4.2366 -12.9398 783.0104
A -4.7635 -11.1206 785.8341
A -6.1003 -8.5111 787.5555
A -7.4281 -6.8880 790.2318
F -9.0196 -4.7398 792.3324
F -9.0211 -2.3044 794.7049
F -8.7844 0.1312 797.0653
F -8.2331 2.0629 799.8085
F -8.8806 3.8002 802.6584
F -8.2627 5.9378 805.2292
F -8.1991 9.3372 805.2486
F -9.4186 12.3714 804.3178
F -10.5760 15.3153 803.0712
F -12.0629 16.9740 800.5026
F -14.1588 16.9812 797.8255
F -16.1903 17.4206 795.1348
F -17.8499 18.0114 792.2267
F -19.6655 18.2337 789.3607
F -21.3049 17.9291 786.3977
F -22.4742 16.7509 783.4304
F -22.9293 13.8375 781.7378
F -22.9711 11.3159 779.4576
F -23.6684 10.0574 776.3770
F -24.4058 9.1000 773.1990
F -25.6239 8.5647 770.0701
F -27.4733 9.9587 767.5809
F -29.6481 11.6342 765.5751
F -31.7624 14.1479 764.6970
F -34.8411 15.5900 764.6524
F -38.0634 15.4375 765.7264
F -40.6784 16.8438 767.3829
F -42.5770 16.9305 770.2020
F -45.0976 16.3806 772.4167
F -48.0820 15.1936 773.5322
F -50.5933 13.4828 775.0574
F -53.6275 12.3612 776.1042
F -56.9991 11.9837 775.8811
F -60.2854 11.9024 775.0132
F -63.5825 12.6404 774.6323
F -66.7542 13.5706 773.8357
F -69.8918 14.7997 773.3832
F -71.2831 17.9020 773.3959
F -70.9091 21.2072 772.6917
F -70.1540 24.3880 771.7579
F -69.9827 27.7835 771.7160
F -68.6564 30.8302 772.4357
F -67.5088 32.4123 775.2179
F -66.2484 34.0810 777.8987
F -65.5611 35.9516 780.6534
F -65.4077 37.1814 783.8195
F -65.3015 40.1509 785.4720
F -63.5150 42.9821 786.0654
F -61.2839 45.4708 786.6891
F -58.2379 46.9812 786.6652
F -56.5777 48.9911 784.4825
F -55.7864 50.1377 781.3811
F -54.9607 52.0772 778.7134
F -54.8852 53.2325 775.5165
F -54.0116 54.2954 772.4074
F -53.8454 56.1595 769.5688
F -54.1793 56.5564 766.2086
F -54.5714 57.5449 762.9792
F -53.6213 59.1888 760.1588
F -50.7905 59.8048 758.3791
F -48.6362 59.3510 755.7881
F -47.3532 57.8812 753.0036
F -45.0698 56.6522 750.8046
F -41.7976 57.0193 749.9573
F -39.0909 57.2662 747.9146
F -38.0064 58.4008 744.8985
F -37.7863 59.5298 741.6990
F -36.5031 61.4698 739.2191
F -36.4130 64.2060 737.2028
F -36.3220 66.4461 734.6468
F -36.2920 67.3397 731.3664
F -35.1079 67.4313 728.1806
F -33.8503 65.6671 725.5603
F -32.4337 62.8407 724.3094
F -31.6744 59.9546 722.6803
A -31.2999 56.9390 721.1553
A -30.4691 53.6427 721.2193
F -31.8553 51.0289 722.8946
F -34.3402 50.2766 725.0899
F -37.0657 48.9612 726.6395
F -38.9091 46.8763 728.5927
F -40.3565 46.1519 731.5827
F -41.5776 46.8065 734.6876
F -43.2684 48.5104 737.0956
F -43.8862 50.9291 739.4038
F -45.5947 53.2485 741.2098
F -45.6409 55.6777 743.5882
F -44.8490 58.5141 745.2875
F -44.4495 60.5928 747.9482
F -44.1029 62.0124 751.0182
F -44.4883 62.3392 754.3804
F -45.2983 62.0417 757.6691
F -46.3615 59.9968 760.1687
F -47.5374 57.4715 762.1181
F -49.4639 54.7656 762.8438
F -50.9419 52.5281 764.9341
F -52.8614 50.6198 766.9917
F -54.9850 48.3008 768.2849
F -57.6703 47.8046 770.3104
F -59.3247 45.5210 772.2101
F -61.2189 43.3752 774.0451
F -63.3804 41.6781 776.0471
F -66.6321 41.2069 776.9214
F -69.9262 40.3856 777.1067
F -72.6164 38.3181 777.3274
F -72.5723 35.0070 778.0984
F -72.1551 31.6328 778.0655
F -70.3402 29.0115 776.8844
F -68.7504 26.3079 775.5718
F -66.6862 23.8328 774.4888
F -65.3008 20.8389 773.6659
F -63.1303 18.6306 772.2614
F -61.0557 16.1304 771.2588
F -58.5468 13.9890 770.4344
F -55.2827 13.0509 770.5954
F -52.2239 11.5665 770.5822
F -49.0216 10.8995 771.5098
F -45.6976 10.9020 772.2246
F -42.3569 10.8609 772.8552
F -39.0018 10.6347 773.3574
F -35.7150 11.3035 773.9142
F -32.5997 12.6605 774.0297
F -29.2650 13.3102 774.1632
F -26.1752 14.4823 774.9625
F -23.1945 15.4146 776.3067
F -20.2113 16.3169 777.6653
F -17.2182 16.6247 779.2485
F -16.2154 15.4434 782.2749
F -16.1808 13.3735 784.9720
F -16.7686 11.4321 787.7007
F -17.0474 9.7857 790.6624
F -17.7309 7.0922 792.6214
F -16.8282 5.4521 795.4595
F -15.8698 4.5412 798.5919
F -15.2935 3.1128 801.6230
F -14.3993 1.4186 804.4320
F -12.9334 1.2191 807.4932
A -12.9145 -0.7063 810.2954
A -12.6588 -3.7397 811.8098
A -11.3315 -5.8269 814.1426
A -9.9743 -5.5965 817.2514
A -8.5176 -6.1524 820.2728
A -6.6527 -5.3365 822.9961
A -4.1153 -3.7895 824.6479
A -1.6738 -1.9183 826.0963
A 1.1348 -0.7846 827.6411
A 3.4479 1.2387 829.0958
A 4.0871 2.0778 832.3280
A 3.6066 2.5877 835.6550
