800 
Atoms. Timestep: 1000000 
A -26.62 -36.0424 -470.133 
A -26.62 -36.0424 -466.733 
A -27.2312 -37.5806 -463.763 
A -27.754 -38.7989 -460.632 
A -29.0009 -38.5335 -457.48 
A -29.1513 -38.099 -454.112 
A -28.1583 -36.9983 -451.052 
A -28.0662 -36.0928 -447.776 
A -26.9623 -34.9455 -444.772 
A -27.8381 -33.6768 -441.741 
A -27.8144 -31.331 -439.28 
A -27.4389 -28.3762 -437.641 
A -26.9016 -26.913 -434.619 
A -27.4728 -25.4338 -431.611 
A -28.6967 -23.5518 -429.058 
A -30.4718 -21.0839 -427.535 
A -33.3916 -19.557 -426.697 
A -36.6046 -18.4548 -426.55 
A -39.4843 -19.1055 -424.863 
A -42.668 -19.4511 -423.721 
A -45.8401 -19.8999 -422.582 
A -48.7888 -20.4957 -420.998 
A -50.6077 -21.3136 -418.244 
A -53.304 -22.1091 -416.332 
A -55.0954 -20.9822 -413.671 
A -56.9577 -19.5262 -411.227 
A -58.6656 -17.1391 -409.511 
A -61.3084 -15.9052 -407.764 
A -62.9997 -15.4074 -404.857 
A -64.3015 -15.5053 -401.717 
A -65.603 -16.9657 -398.936 
A -66.2718 -19.2909 -396.548 
A -66.6794 -21.7032 -394.187 
A -67.7977 -23.0966 -391.294 
A -68.8742 -25.1045 -388.77 
A -70.2325 -27.0087 -386.302 
A -69.4678 -27.9271 -383.119 
A -69.0178 -28.4758 -379.794 
A -68.164 -29.6658 -376.726 
A -68.1638 -32.3656 -374.659 
A -67.9013 -34.5637 -372.079 
A -67.4861 -37.0904 -369.842 
A -67.568 -39.2652 -367.23 
A -67.5196 -41.9457 -365.139 
A -66.0779 -45.0147 -364.889 
A -64.9765 -48.1963 -365.363 
A -63.3493 -51.1432 -364.886 
A -62.9277 -54.3855 -365.818 
A -61.8447 -57.2088 -367.373 
A -60.3987 -59.8851 -368.891 
A -59.1562 -63.0497 -368.86 
A -57.7822 -65.8636 -367.535 
A -57.103 -68.5688 -365.591 
A -57.9577 -71.0049 -363.378 
A -59.1767 -73.2436 -361.128 
A -60.3656 -75.7885 -359.213 
A -62.0649 -76.6029 -356.383 
A -63.1613 -76.4809 -353.167 
A -63.3256 -75.3899 -349.951 
A -62.0887 -76.4452 -346.965 
A -61.6971 -76.7166 -343.598 
A -60.7373 -77.8545 -340.541 
A -59.7056 -78.4668 -337.36 
A -57.4213 -78.0634 -334.874 
A -54.2587 -77.8833 -333.639 
A -50.8732 -78.0622 -333.381 
A -47.5783 -78.8302 -333.719 
A -44.9128 -80.7816 -334.523 
A -41.9086 -81.2318 -336.05 
A -41.2638 -81.638 -339.364 
A -41.3311 -81.0771 -342.716 
A -42.057 -79.7612 -345.766 
A -44.6795 -78.6038 -347.595 
A -47.2016 -78.1026 -349.819 
A -49.8379 -77.9989 -351.964 
A -52.5618 -76.1412 -352.794 
A -55.017 -74.074 -353.916 
A -57.7557 -72.1788 -354.6 
A -59.9072 -69.9321 -355.972 
A -62.0113 -68.4618 -358.202 
A -63.3569 -66.5655 -360.682 
A -65.0008 -65.3534 -363.4 
A -66.4421 -64.074 -366.201 
A -65.3406 -62.4413 -368.973 
A -63.4083 -61.0623 -371.407 
A -61.3446 -60.3009 -374 
A -59.5929 -60.47 -376.909 
A -57.3514 -59.8107 -379.379 
A -55.4698 -58.5834 -381.931 
A -52.97 -56.5919 -383.091 
A -49.9656 -55.0183 -383.329 
A -47.977 -52.4388 -384.305 
A -45.6648 -50.2533 -385.504 
A -45.8755 -46.9587 -384.691 
A -47.6676 -45.0281 -382.541 
A -48.841 -44.4141 -379.41 
A -48.3264 -46.3647 -376.673 
A -47.2381 -47.3574 -373.608 
A -45.7365 -48.8533 -370.95 
A -43.4855 -48.7778 -368.403 
A -41.2811 -48.1709 -365.887 
A -40.3883 -46.8556 -362.881 
A -38.504 -45.6498 -360.321 
A -37.727 -44.269 -357.312 
A -38.3989 -44.372 -353.981 
A -37.7497 -43.7432 -350.703 
A -37.8135 -43.6446 -347.305 
A -38.3111 -42.7125 -344.074 
A -38.4786 -41.4301 -340.929 
A -37.683 -41.0904 -337.641 
A -37.7211 -40.5704 -334.281 
A -37.3043 -41.0429 -330.94 
A -36.2731 -40.5637 -327.736 
A -35.3164 -41.4016 -324.583 
A -33.2015 -39.5352 -322.685 
A -32.5842 -37.0919 -320.402 
A -31.7504 -35.068 -317.801 
A -30.6264 -32.5355 -315.83 
A -29.9967 -29.7589 -313.972 
A -30.1375 -27.0812 -311.881 
A -30.0739 -25.9242 -308.685 
A -30.3446 -25.4109 -305.335 
A -30.252 -24.9184 -301.972 
A -29.8089 -24.3201 -298.654 
A -29.9304 -23.1746 -295.455 
A -31.2697 -22.0877 -292.525 
A -29.5835 -22.5875 -289.615 
A -27.0704 -22.2971 -287.344 
A -24.6223 -22.5676 -285 
A -21.3889 -22.5204 -283.95 
A -18.0143 -22.1087 -283.997 
A -15.2504 -20.1514 -284.297 
A -13.0925 -17.5538 -283.902 
A -10.7012 -15.1374 -283.953 
A -9.50872 -12.0533 -284.745 
A -6.68034 -10.1735 -284.908 
A -4.11633 -8.49762 -286.383 
A -1.40915 -7.52924 -288.198 
A 1.43426 -6.17064 -289.474 
A 4.22118 -6.44291 -291.403 
A 7.02763 -6.35038 -293.32 
A 10.2341 -5.95845 -294.381 
A 13.0043 -4.99512 -296.1 
A 16.035 -4.3534 -297.501 
A 17.9698 -2.62394 -299.698 
A 20.6819 -1.18016 -301.154 
A 22.4961 1.58655 -301.938 
A 23.2233 4.90082 -302.154 
A 22.213 7.99801 -303.127 
A 21.5226 10.7045 -305.066 
A 21.5323 13.2497 -307.32 
A 21.0323 15.6968 -309.627 
A 20.9895 18.0387 -312.091 
A 21.7031 20.2295 -314.592 
A 22.1675 21.5771 -317.678 
A 23.3373 23.1169 -320.475 
A 25.484 24.1166 -322.915 
A 27.358 26.6367 -324.217 
A 30.2128 26.7863 -326.058 
A 33.4345 27.8444 -325.81 
A 36.8046 27.6768 -325.393 
A 40.202 27.6656 -325.262 
A 43.224 26.7337 -324.013 
A 45.8118 25.3537 -322.293 
A 49.0765 25.7063 -321.411 
A 51.4336 27.6533 -322.899 
A 50.256 30.6678 -323.941 
A 48.3633 33.3576 -324.803 
A 46.2197 35.9624 -325.227 
A 43.9314 38.3531 -324.447 
A 41.7111 40.9193 -324.234 
A 38.6218 40.7018 -322.831 
A 35.7867 40.0823 -321.059 
A 33.3152 38.4432 -319.397 
A 31.454 35.8983 -318.124 
A 29.1168 33.5252 -317.441 
A 27.7569 30.4163 -317.653 
A 27.0072 27.1659 -316.994 
A 26.6173 23.9469 -315.972 
A 27.3992 20.7603 -315.08 
A 27.4247 17.5134 -314.072 
A 26.2631 14.3332 -313.761 
A 24.5177 11.4193 -313.913 
A 21.7369 9.53361 -313.393 
A 20.2288 7.79809 -310.888 
A 18.1553 6.06526 -308.824 
A 17.0449 3.57298 -306.796 
A 15.2348 1.762 -304.559 
A 14.2946 -0.000684064 -301.807 
A 13.8964 -0.054211 -298.431 
A 14.1185 0.0767206 -295.041 
A 12.5155 0.308967 -292.052 
A 11.5327 -0.506708 -288.901 
A 10.0131 -1.22761 -285.946 
A 7.2181 -2.06241 -284.199 
A 4.8018 -4.12274 -282.984 
A 3.11567 -7.00928 -282.364 
A 1.36101 -9.74205 -283.37 
A -0.602137 -12.0304 -284.942 
A -2.2167 -14.5321 -286.583 
A -5.02128 -16.3729 -287.136 
A -7.28646 -18.6761 -288.196 
A -10.4084 -19.9668 -288.58 
A -13.6585 -20.9026 -288.929 
A -16.9593 -20.7715 -289.734 
A -19.4919 -19.5226 -291.627 
A -22.0697 -17.3279 -291.941 
A -25.0846 -15.8225 -292.393 
A -27.9355 -15.04 -294.073 
A -30.822 -14.3428 -295.729 
A -33.9219 -13.8278 -297.027 
A -37.2976 -13.4442 -296.895 
A -40.1505 -14.0371 -295.143 
A -42.4963 -14.5301 -292.731 
A -43.8884 -16.0691 -290.038 
A -44.3865 -18.363 -287.579 
A -46.4917 -19.5021 -285.164 
A -48.2469 -21.0689 -282.709 
A -49.3323 -22.9363 -280.084 
A -49.8752 -25.0669 -277.49 
A -49.6157 -26.1598 -274.281 
A -48.7999 -25.4111 -271.067 
A -46.8244 -25.8353 -268.332 
A -46.1824 -26.3425 -265.032 
A -46.2004 -26.7244 -261.653 
A -45.2052 -26.9247 -258.409 
A -44.9718 -28.8597 -255.623 
A -44.8917 -30.512 -252.652 
A -43.4716 -31.6289 -249.772 
A -42.5013 -32.4155 -246.61 
A -43.5963 -30.744 -243.859 
A -45.4667 -30.0844 -241.097 
A -45.2194 -29.5535 -237.748 
A -43.809 -27.8577 -235.161 
A -42.8661 -27.7595 -231.895 
A -41.9069 -28.731 -228.782 
A -40.5734 -30.3287 -226.093 
A -40.46 -31.0369 -222.769 
A -40.3361 -32.3791 -219.648 
A -39.0695 -32.9412 -216.543 
A -39.2775 -32.9508 -213.15 
A -39.9558 -31.4253 -210.188 
A -40.8379 -30.8576 -206.954 
A -42.403 -31.3491 -203.975 
A -42.4976 -31.4611 -200.579 
A -42.2296 -32.4679 -197.342 
A -41.7015 -32.9835 -194.023 
A -41.6413 -34.2076 -190.852 
A -40.9918 -34.3076 -187.516 
A -39.4715 -35.7085 -184.817 
A -37.8428 -36.3839 -181.91 
A -36.2101 -37.0488 -179.002 
A -33.8086 -38.2747 -176.931 
A -31.468 -39.1729 -174.634 
A -29.6311 -39.704 -171.823 
A -28.8735 -39.5466 -168.512 
A -28.1899 -39.0984 -165.212 
A -28.286 -37.0153 -162.527 
A -27.5405 -34.9673 -159.917 
A -27.6431 -31.8694 -158.52 
A -26.9941 -29.3789 -156.298 
A -25.1782 -26.6146 -155.51 
A -24.1988 -23.3614 -155.641 
A -24.8331 -20.0669 -156.192 
A -26.5325 -17.1271 -156.364 
A -27.7166 -14.0532 -155.522 
A -26.2552 -11.1612 -156.551 
A -25.3771 -7.92689 -157.124 
A -22.9757 -5.62923 -157.841 
A -20.2465 -3.67278 -158.374 
A -16.8501 -3.61661 -158.227 
A -13.8604 -4.1692 -156.705 
A -10.9452 -4.7146 -155.043 
A -8.63037 -4.17062 -152.612 
A -7.38796 -2.47439 -149.941 
A -6.81461 0.011734 -147.693 
A -6.49331 1.84836 -144.85 
A -5.96201 3.73189 -142.07 
A -5.36135 6.5776 -140.309 
A -4.62702 9.35084 -138.484 
A -5.46607 11.9956 -136.519 
A -5.77278 14.6457 -134.411 
A -6.23533 16.8751 -131.886 
A -7.40711 19.2942 -129.804 
A -9.33712 21.3807 -127.938 
A -12.0784 21.9151 -125.999 
A -14.0427 22.22 -123.241 
A -16.4927 21.6374 -120.957 
A -19.3606 21.4821 -119.137 
A -22.217 21.723 -117.309 
A -24.8719 23.4444 -116.064 
A -27.3154 25.5565 -115.002 
A -28.0725 28.4857 -116.553 
A -29.2104 31.1569 -118.322 
A -29.593 34.0201 -120.115 
A -29.9154 36.8675 -121.945 
A -29.4201 40.2092 -122.33 
A -27.0542 42.5845 -121.764 
A -25.1431 44.6506 -123.671 
A -22.7832 45.967 -125.735 
A -20.8935 47.1791 -128.288 
A -19.5456 48.6548 -131.039 
A -17.8261 50.0786 -133.603 
A -16.3974 52.4166 -135.616 
A -15.7645 55.6663 -136.39 
A -15.249 59.026 -136.306 
A -13.9259 62.1391 -135.963 
A -12.5471 65.0316 -134.826 
A -13.0166 67.4867 -132.521 
A -13.9041 68.8018 -129.514 
A -14.1698 69.7987 -126.274 
A -13.8735 68.4601 -123.163 
A -12.8063 67.8221 -119.999 
A -11.8912 65.7357 -117.475 
A -11.9761 63.6736 -114.773 
A -13.1884 60.794 -113.432 
A -14.5353 58.11 -111.837 
A -14.6629 55.384 -109.809 
A -15.567 52.1234 -109.476 
A -16.6134 48.9136 -109.878 
A -18.0166 46.3888 -111.672 
A -18.6265 44.0587 -114.071 
A -19.4391 42.3407 -116.891 
A -20.5994 40.7739 -119.676 
A -21.5038 40.6937 -122.953 
A -21.778 40.9222 -126.334 
A -21.9595 39.646 -129.48 
A -20.2339 39.4426 -132.403 
A -17.7426 37.8696 -134.099 
A -15.0056 36.462 -135.544 
A -12.842 34.2124 -136.893 
A -11.3823 31.7127 -138.676 
A -11.5172 28.3154 -138.678 
A -10.7798 25.2386 -139.923 
A -11.3693 21.9817 -140.701 
A -12.5871 18.8228 -140.388 
A -12.6183 15.4911 -139.71 
A -11.0026 12.5605 -139.11 
A -9.82038 9.97271 -137.248 
A -7.74639 7.28671 -137.038 
A -6.42072 5.08908 -134.808 
A -6.1991 3.70998 -131.708 
A -6.89972 2.90176 -128.481 
A -8.65323 2.2441 -125.643 
A -8.68081 3.33409 -122.423 
A -8.50425 4.73055 -119.328 
A -8.19039 6.27675 -116.316 
A -7.849 9.31624 -114.831 
A -6.43417 12.3797 -114.415 
A -4.87475 15.2682 -115.301 
A -3.55158 18.1886 -116.432 
A -2.16554 21.0733 -117.58 
A -1.50691 23.7572 -119.561 
A 1.30293 25.1024 -120.923 
A 4.66254 25.343 -120.459 
A 7.64753 26.8187 -119.772 
A 9.95274 29.1271 -118.814 
A 12.7454 30.8822 -117.989 
A 14.2989 33.7515 -117.033 
A 15.7688 36.7833 -116.577 
A 18.6558 38.5071 -116.073 
A 19.7474 41.415 -117.456 
A 20.5624 43.6202 -119.913 
A 19.815 44.0608 -123.2 
A 19.3874 42.9838 -126.396 
A 18.4331 42.884 -129.658 
A 19.2095 44.0949 -132.739 
A 18.8422 44.4826 -136.097 
A 20.3103 45.8793 -138.827 
A 21.4858 47.4494 -141.604 
A 22.6179 48.0385 -144.756 
A 23.1648 49.3773 -147.833 
A 23.6941 52.1164 -149.776 
A 24.0033 55.488 -149.466 
A 24.753 58.3866 -147.855 
A 25.8288 60.2604 -145.23 
A 28.2347 60.4106 -142.832 
A 29.8376 59.0108 -140.18 
A 30.2026 57.2379 -137.302 
A 28.8381 54.9661 -135.172 
A 29.4795 51.8118 -134.077 
A 29.426 48.6167 -132.916 
A 29.0491 45.5733 -131.448 
A 27.169 42.9023 -130.504 
A 24.6776 40.644 -130.001 
A 22.3462 38.2555 -129.353 
A 20.1146 36.8466 -127.209 
A 17.6119 37.3933 -124.974 
A 14.3847 36.8915 -124.028 
A 11.1228 36.7341 -123.082 
A 8.5997 35.6631 -121.071 
A 7.53526 32.7794 -119.618 
A 5.74074 31.0214 -117.327 
A 4.40563 27.9541 -116.719 
A 4.27104 24.5651 -116.482 
A 2.65826 21.6151 -116.988 
A 2.41757 18.4852 -118.295 
A 0.193769 16.6048 -120.049 
A -1.8442 14.4881 -121.76 
A -4.61291 12.6593 -122.501 
A -6.44415 10.5449 -124.434 
A -7.38758 8.68854 -127.122 
A -8.30882 7.68682 -130.238 
A -10.0713 6.0205 -132.62 
A -10.174 3.56172 -134.966 
A -11.7814 1.52726 -137.166 
A -13.4475 0.483468 -139.94 
A -14.013 0.318777 -143.288 
A -15.4512 -0.645349 -146.214 
A -15.9476 -2.17685 -149.209 
A -16.7667 -4.03757 -151.934 
A -16.3969 -6.60981 -154.127 
A -15.9655 -9.44771 -155.949 
A -17.2554 -12.1433 -157.57 
A -19.4165 -14.6742 -158.266 
A -21.9288 -16.6613 -159.406 
A -24.3979 -17.6516 -161.523 
A -26.967 -18.6446 -163.517 
A -29.7027 -20.3021 -164.669 
A -32.6069 -21.7216 -165.723 
A -35.4203 -23.0214 -167.122 
A -38.3799 -23.5499 -168.71 
A -41.4765 -24.8965 -169.107 
A -43.9048 -27.0305 -170.16 
A -46.7598 -28.7826 -170.743 
A -48.2514 -31.814 -171.124 
A -48.9709 -35.1307 -170.921 
A -48.1651 -38.3737 -170.293 
A -47.1973 -41.5816 -169.716 
A -45.4148 -44.3193 -168.774 
A -43.29 -46.7936 -167.813 
A -40.6332 -48.9044 -168.027 
A -37.3738 -49.8674 -167.931 
A -34.0506 -50.2028 -168.566 
A -30.7224 -50.5847 -167.985 
A -27.4246 -49.8234 -168.308 
A -24.3363 -48.402 -168.259 
A -21.4605 -48.1963 -166.457 
A -19.5978 -48.261 -163.613 
A -16.4766 -47.9531 -162.301 
A -14.0218 -49.1745 -160.29 
A -11.3316 -49.4353 -158.227 
A -9.33142 -50.9982 -155.965 
A -6.66129 -52.5371 -154.529 
A -4.51131 -53.8879 -152.268 
A -3.0674 -54.5042 -149.252 
A -2.43431 -54.9632 -145.943 
A -1.16628 -54.938 -142.789 
A -0.622008 -54.1304 -139.531 
A -0.208639 -52.9568 -136.367 
A 1.56005 -52.2566 -133.549 
A 1.46699 -49.9537 -131.049 
A 0.349219 -47.5254 -128.949 
A 0.179566 -44.9495 -126.736 
A -0.0963587 -42.2598 -124.674 
A 0.656733 -40.6305 -121.787 
A 1.46197 -40.0506 -118.535 
A 2.69882 -38.8643 -115.598 
A 3.64754 -37.6101 -112.584 
A 5.31538 -37.4183 -109.627 
A 6.31415 -37.1566 -106.388 
A 8.0972 -36.6888 -103.531 
A 9.20225 -37.5356 -100.429 
A 9.93837 -38.6253 -97.2938 
A 10.9552 -40.202 -94.4583 
A 13.0694 -40.8726 -91.8814 
A 13.95 -41.9243 -88.7703 
A 14.7368 -40.843 -85.6443 
A 15.6494 -40.1186 -82.4502 
A 17.0872 -38.5184 -79.8173 
A 17.4885 -37.0682 -76.7684 
A 17.6702 -37.3277 -73.3832 
A 17.3865 -38.9656 -70.4173 
A 17.4112 -40.2629 -67.2746 
A 17.5073 -42.6918 -64.8974 
A 18.0958 -45.5646 -63.1766 
A 16.4589 -47.0476 -60.5919 
A 15.5767 -47.0832 -57.3085 
A 14.3606 -46.3037 -54.2306 
A 15.1113 -45.5406 -51.0035 
A 15.7739 -43.6475 -48.2581 
A 16.9503 -42.0692 -45.4859 
A 18.2463 -40.9163 -42.5617 
A 18.4041 -39.2068 -39.6269 
A 18.0715 -38.7526 -36.2738 
A 16.3104 -38.9639 -33.3732 
A 15.1251 -40.4981 -30.58 
A 14.4979 -42.3767 -27.8165 
A 13.4077 -42.3503 -24.5961 
A 11.6621 -41.376 -21.8459 
A 9.68162 -40.556 -19.2067 
A 8.45637 -40.2198 -16.053 
A 6.56529 -39.1165 -13.4518 
A 5.03543 -37.9807 -10.6359 
A 5.73392 -35.3979 -8.53795 
A 6.21283 -33.3236 -5.88692 
A 7.44869 -33.0953 -2.72773 
A 8.42567 -33.4104 0.513601 
A 10.2323 -35.2914 2.69485 
A 11.5782 -38.0313 4.19203 
A 13.3613 -37.5584 7.04807 
A 14.4565 -36.525 10.0965 
A 14.8578 -36.1037 13.4463 
A 14.8322 -35.6037 16.8093 
A 14.9268 -34.9052 20.1354 
A 13.8485 -33.5776 23.0739 
A 15.4795 -31.9957 25.6031 
A 17.7505 -30.2185 27.4043 
A 20.2165 -29.9174 29.7255 
A 22.2274 -29.7279 32.4605 
A 23.9964 -30.3477 35.2971 
A 26.5653 -30.5105 37.5185 
A 28.6388 -28.2257 38.9468 
A 30.871 -25.7538 39.6306 
A 33.2298 -23.6814 40.9348 
A 36.1662 -22.3045 41.9554 
A 38.9399 -21.1007 43.5104 
A 40.8645 -19.5653 45.8552 
A 43.4295 -18.6977 47.9114 
A 45.7919 -17.6183 50.1055 
A 47.6838 -16.2405 52.5718 
A 48.4556 -15.1734 55.7063 
A 49.4921 -14.4722 58.8677 
A 50.8337 -14.1998 61.9799 
A 51.3223 -13.2641 65.2118 
A 53.3918 -12.3413 67.7467 
A 55.751 -12.1605 70.1883 
A 57.5457 -11.0001 72.8327 
A 58.6982 -11.1086 76.0296 
A 59.626 -11.0885 79.3005 
A 62.1208 -11.0815 81.6104 
A 62.9123 -11.1437 84.9164 
A 63.4165 -12.4339 88.0214 
A 63.7264 -13.9064 91.0703 
A 66.1592 -15.2518 93.0277 
A 69.3897 -15.4404 94.0708 
A 72.5989 -14.3185 94.1197 
A 75.813 -13.4137 93.4787 
A 78.5519 -11.733 94.5893 
A 80.9867 -9.64688 95.7208 
A 82.2989 -7.55746 98.06 
A 83.1839 -5.31146 100.454 
A 83.4262 -3.69377 103.435 
A 84.2092 -2.61464 106.563 
A 85.5006 -2.15947 109.675 
A 86.8265 -2.19869 112.805 
A 86.5472 -3.28735 116.014 
A 86.9424 -5.91895 118.13 
A 87.9374 -7.47622 120.984 
A 87.9359 -7.06512 124.359 
A 89.4441 -7.59156 127.361 
A 91.1803 -7.58448 130.284 
A 92.7126 -6.84015 133.226 
A 93.8634 -5.77137 136.242 
A 95.5395 -3.73425 138.387 
A 96.6441 -1.52781 140.726 
A 96.7068 0.314239 143.583 
A 96.5914 2.40149 146.265 
A 97.5946 4.28983 148.908 
A 97.8517 3.96016 152.282 
A 98.9047 4.83321 155.395 
A 98.8801 5.66905 158.69 
A 98.6783 6.07864 162.06 
A 98.7471 5.50335 165.41 
A 97.7104 4.39573 168.453 
A 96.465 3.21738 171.389 
A 94.5393 2.26888 174.025 
A 91.8371 1.08046 175.712 
A 90.9285 0.469674 178.931 
A 88.1838 1.59455 180.593 
A 86.0158 2.20206 183.141 
A 83.4796 3.29488 185.124 
A 81.0545 3.5566 187.493 
A 78.4577 2.30416 189.295 
A 75.563 1.53731 190.905 
A 73.513 0.282163 193.31 
A 70.7678 -0.988277 194.862 
A 70.8412 -3.17983 197.46 
A 70.539 -5.22147 200.162 
A 69.6847 -6.87345 203.009 
A 67.7064 -8.99937 204.777 
A 66.3871 -10.0055 207.745 
A 66.0674 -10.4467 211.101 
A 65.4192 -10.9968 214.393 
A 64.0512 -12.0963 217.305 
A 62.2292 -12.1649 220.174 
A 60.6701 -13.0754 223.055 
A 58.4969 -12.5871 225.624 
A 56.1959 -11.6302 227.937 
A 55.4533 -10.6214 231.098 
A 53.2022 -10.2529 233.619 
A 51.673 -9.47549 236.555 
A 49.638 -7.47141 238.399 
A 47.617 -6.90893 241.075 
A 45.8509 -6.15964 243.882 
A 44.7187 -5.8408 247.072 
A 44.3968 -6.62425 250.365 
A 43.3037 -7.63253 253.422 
A 42.6099 -8.32954 256.677 
A 42.111 -8.05611 260.029 
A 40.3322 -7.35553 262.841 
A 38.7541 -8.09938 265.759 
A 37.8039 -8.74327 268.959 
A 36.5773 -10.5023 271.598 
A 35.2563 -11.266 274.636 
A 34.3985 -11.1081 277.922 
A 33.2068 -11.2777 281.102 
A 32.5383 -11.1448 284.433 
A 33.4437 -11.2752 287.708 
A 34.5037 -11.6239 290.919 
A 36.4166 -11.7812 293.726 
A 38.525 -11.8629 296.392 
A 40.4235 -10.7906 299.001 
A 41.8802 -9.00952 301.504 
A 43.6464 -7.43972 303.948 
A 44.6675 -7.05656 307.169 
A 46.0069 -6.1918 310.172 
A 47.0856 -4.12329 312.645 
A 46.9527 -1.88808 315.204 
A 47.6633 0.528534 317.487 
A 45.8768 2.34553 319.738 
A 44.1654 4.07459 322.114 
A 41.933 6.02284 323.781 
A 40.3263 7.9441 326.081 
A 37.4859 9.27633 327.391 
A 34.3444 10.3402 328.139 
A 31.3674 11.3991 329.394 
A 28.0244 11.7315 328.871 
A 25.0322 11.3379 330.437 
A 23.0058 11.1714 333.162 
A 20.4045 11.5501 335.318 
A 18.767 12.3429 338.19 
A 17.7252 13.8556 341.051 
A 15.6584 15.5681 343.138 
A 13.7432 16.4596 345.803 
A 11.9476 16.5915 348.687 
A 10.0851 15.5172 351.321 
A 7.76123 13.9818 353.27 
A 5.05165 12.855 354.988 
A 2.0766 13.0554 356.621 
A -0.551822 11.9943 358.499 
A -2.59942 11.0337 361.038 
A -3.24008 10.5986 364.348 
A -3.18665 9.20993 367.451 
A -3.55625 7.75148 370.5 
A -2.74112 7.30445 373.771 
A -2.26048 7.55856 377.127 
A -2.41389 7.37326 380.518 
A -2.76991 7.53107 383.896 
A -3.4053 6.58569 387.099 
A -3.25062 5.99161 390.444 
A -3.32209 7.1794 393.629 
A -4.21337 8.34504 396.696 
A -5.61976 8.29263 399.791 
A -7.23447 8.78042 402.743 
A -8.6154 9.3874 405.79 
A -10.7313 9.20331 408.445 
A -13.622 8.91046 410.211 
A -15.3131 7.65871 412.881 
A -16.2837 7.23993 416.113 
A -15.735 5.78873 419.138 
A -16.1191 4.2261 422.133 
A -15.3067 2.18048 424.725 
A -13.8312 1.75737 427.759 
A -11.521 0.921262 430.109 
A -9.25924 -0.115732 432.426 
A -6.81104 -0.334481 434.775 
A -4.53895 -0.852052 437.251 
A -3.05715 -0.571032 440.298 
A -1.28293 0.240102 443.083 
A -0.97792 -0.964644 446.248 
A -0.938396 -0.254939 449.572 
A -0.614952 -1.08426 452.854 
A -0.163079 -1.20363 456.222 
A -0.187547 -0.473749 459.542 
A 0.226263 -0.546145 462.916 
A 2.73319 -0.573707 465.213 
A 5.57067 -0.476061 467.083 
A 8.8316 -0.708199 468.018 
A 11.5003 0.661224 469.618 
A 12.9951 3.08972 471.47 
A 13.8994 6.1668 472.598 
A 13.7316 9.06963 474.361 
A 14.3509 11.2337 476.909 
A 14.9744 13.7513 479.107 
A 15.6212 16.0243 481.552 
A 16.4501 17.8178 484.319 
A 15.4818 19.3005 487.221 
A 14.462 20.0455 490.378 
A 12.4484 21.8688 492.423 
A 10.8823 23.3531 495.05 
A 9.54586 24.8938 497.77 
A 9.72356 26.4634 500.781 
A 10.2325 26.1765 504.131 
A 11.3805 26.4787 507.317 
A 12.1296 26.1578 510.618 
A 12.5103 26.4785 513.981 
A 12.0508 26.6478 517.345 
A 10.8093 26.3628 520.498 
A 10.4918 25.0842 523.632 
A 10.5817 25.2047 527.029 
A 11.7722 26.762 529.807 
A 11.9795 28.4976 532.723 
A 12.7178 30.3078 535.505 
A 15.048 31.2593 537.791 
A 15.4937 32.0475 541.068 
A 16.5999 33.3933 543.988 
A 17.7807 34.2119 547.069 
A 19.519 35.9609 549.41 
A 19.6688 38.7483 551.351 
A 20.1046 39.6097 554.611 
A 20.3401 41.5649 557.383 
A 21.2959 41.0706 560.608 
A 22.089 41.4374 563.894 
A 21.17 40.8095 567.107 
A 19.8658 40.6321 570.241 
A 18.3292 40.1776 573.24 
A 15.9493 40.6871 575.614 
A 13.4699 40.8988 577.931 
A 10.9637 42.4976 579.581 
A 8.98277 42.8299 582.324 
A 8.39736 42.1645 585.607 
A 9.37454 42.4481 588.851 
A 8.71889 42.7088 592.177 
A 6.64597 42.8024 594.87 
A 4.44597 42.3378 597.421 
A 3.43401 43.6513 600.389 
A 2.44974 44.877 603.404 
A 1.19743 46.2158 606.267 
A -1.13294 46.9748 608.624 
A -2.88812 46.2937 611.455 
A -3.39563 45.8964 614.793 
A -4.27683 44.7769 617.88 
A -3.69887 44.2255 621.185 
A -2.55802 44.962 624.302 
A -1.32559 46.242 627.201 
A 0.362079 47.3022 629.956 
A 1.78368 49.395 632.227 
A 3.25516 52.3593 633.007 
A 3.61202 55.5151 634.22 
A 3.20217 58.8097 634.954 
A 3.92371 62.0178 635.818 
A 3.97139 65.2827 634.87 
A 5.00803 68.1521 633.37 
A 5.06547 71.4324 634.263 
A 4.27805 74.7105 633.822 
A 3.34466 77.0713 631.56 
A 3.35549 79.6054 629.294 
A 1.6687 80.3378 626.434 
A 1.5175 82.7524 624.045 
A 0.634709 85.1921 621.848 
A 2.15651 87.4599 619.822 
A 4.7567 89.4403 618.886 
A 7.91921 90.6824 619.011 
A 10.8426 92.4152 618.905 
A 13.1282 94.7447 619.859 
A 16.0607 93.8004 621.297 
A 18.5599 91.5674 620.725 
A 19.9869 89.0199 618.984 
A 21.2897 86.7604 616.802 
A 22.6861 86.3761 613.726 
A 22.7098 86.9051 610.368 
A 22.0959 88.13 607.256 
A 19.9824 90.2265 605.614 
A 18.3739 93.175 605.086 
A 17.9693 96.0582 606.842 
A 17.1474 99.0698 608.189 
A 15.5665 100.819 610.639 
A 13.811 102.24 613.18 
A 12.5662 102.102 616.341 
A 11.0535 100.928 619.15 
A 9.99951 98.4935 621.277 
A 8.75817 95.5208 622.364 
A 8.53037 92.7124 624.267 
A 8.26044 89.4823 625.293 
A 8.02645 86.1467 625.909 
A 6.66249 83.2374 624.797 
A 6.12003 79.9044 624.401 
A 4.84599 77.3779 626.286 
A 2.77531 75.0138 627.583 
A 1.19515 73.2213 630.002 
A -1.58536 71.5627 631.04 
A -3.10183 69.4097 633.191 
A -4.1427 68.1784 636.184 
A -6.51506 67.4927 638.521 
A -8.41847 66.5585 641.179 
A -9.14712 66.2435 644.485 
A -10.523 64.6466 647.153 
A -11.9324 65.0332 650.223 
A -13.088 65.6896 653.352 
A -11.9137 67.9612 655.593 
A -11.6901 70.2148 658.129 
A -12.005 73.0248 660.017 
A -12.8252 75.8073 661.791 
A -12.7683 78.4593 663.917 
A -12.5484 81.1494 665.985 
A -13.7032 83.5649 668.081 
A -14.5974 85.184 670.934 
A -15.1669 85.9615 674.194 
A -16.1574 85.8639 677.445 
800 
Atoms. Timestep: 2000000 
A -72.6115 74.1567 -339.515 
A -72.6115 74.1567 -336.115 
A -73.8238 72.6707 -333.308 
A -74.9078 70.4505 -330.972 
A -75.8693 68.6268 -328.268 
A -76.0759 67.0819 -325.247 
A -77.3388 64.8936 -322.971 
A -77.1311 61.9658 -321.255 
A -76.0032 59.2835 -319.497 
A -73.8045 58.4603 -317.037 
A -72.6805 56.5731 -314.442 
A -70.8835 54.6337 -312.305 
A -68.9371 52.5893 -310.409 
A -65.9602 51.4775 -309.2 
A -64.379 50.4096 -306.386 
A -62.9932 48.9399 -303.651 
A -61.2622 47.0337 -301.431 
A -58.2353 46.1525 -300.157 
A -55.2807 45.0546 -298.883 
A -52.6084 44.0364 -297.044 
A -49.274 43.4029 -296.842 
A -46.8303 41.1194 -296.23 
A -44.4303 38.7363 -295.883 
A -42.0854 36.3571 -295.25 
A -40.5031 34.0416 -293.327 
A -38.9541 31.0151 -293.297 
A -38.1502 27.8171 -294.126 
A -37.6578 24.4843 -293.667 
A -38.1046 21.1412 -293.238 
A -39.0673 18.0903 -292.087 
A -41.1027 15.3724 -292.262 
A -42.8762 12.507 -291.81 
A -45.2226 10.0515 -291.968 
A -47.3751 8.19056 -293.829 
A -48.5759 7.67183 -296.967 
A -49.0272 8.28616 -300.28 
A -48.6992 10.2481 -303.038 
A -49.164 13.099 -304.831 
A -50.4137 15.8636 -306.366 
A -49.9441 19.0294 -307.514 
A -48.5533 22.0462 -306.789 
A -46.7999 24.7292 -307.924 
A -44.6932 27.385 -308.185 
A -41.7579 28.8908 -307.363 
A -38.5015 29.7188 -306.843 
A -35.3622 31.0015 -306.598 
A -31.979 30.6719 -306.669 
A -28.6545 30.9307 -307.334 
A -25.3555 30.4192 -306.69 
A -22.2903 29.3766 -305.652 
A -19.6842 30.047 -303.573 
A -19.1053 28.58 -300.561 
A -18.4093 27.8409 -297.316 
A -16.8961 26.8335 -294.443 
A -15.6066 26.9027 -291.298 
A -13.2824 26.9791 -288.818 
A -10.6993 28.2225 -286.99 
A -8.93342 29.0979 -284.219 
A -7.45412 29.9799 -281.288 
A -5.5008 29.6131 -278.529 
A -3.00302 28.7864 -276.376 
A -0.860033 26.9024 -274.527 
A 2.03263 25.6365 -273.266 
A 5.24081 26.2832 -272.344 
A 8.33633 27.6542 -272.031 
A 11.1554 29.4947 -271.556 
A 13.4004 31.7824 -270.422 
A 13.5289 34.5736 -268.485 
A 12.7198 36.4762 -265.785 
A 12.2728 39.1166 -263.691 
A 11.0303 41.9538 -262.288 
A 11.3504 44.4321 -259.983 
A 10.8253 47.3903 -258.391 
A 8.27323 48.6305 -256.518 
A 5.03097 49.0418 -255.58 
A 2.32589 48.3254 -253.649 
A -0.0837572 47.8353 -251.301 
A -2.71926 46.7111 -249.471 
A -4.85518 44.9927 -247.46 
A -6.64967 42.6076 -245.831 
A -7.19251 40.5286 -243.196 
A -8.53433 38.5582 -240.772 
A -9.33116 36.5838 -238.121 
A -9.05277 34.352 -235.572 
A -8.72451 32.5977 -232.678 
A -9.69612 29.8828 -230.876 
A -8.97311 27.9899 -228.146 
A -8.09096 26.4547 -225.243 
A -5.95852 24.8412 -223.144 
A -3.15351 24.4852 -221.255 
A -1.38445 23.6737 -218.468 
A 1.10221 23.1155 -216.217 
A 3.18818 20.5234 -215.517 
A 4.27284 17.9341 -213.599 
A 5.60212 16.0527 -211.099 
A 6.15439 13.5138 -208.906 
A 7.45607 10.4319 -208.3 
A 8.75558 7.36651 -207.61 
A 11.0213 5.16179 -208.862 
A 12.8808 2.35025 -208.417 
A 14.7862 -0.383029 -207.74 
A 16.9875 -2.91951 -208.269 
A 19.4842 -5.22653 -208.335 
A 22.3279 -6.20185 -206.746 
A 24.8716 -4.42812 -205.352 
A 28.2223 -3.8948 -205.132 
A 31.2503 -2.41877 -204.671 
A 34.5528 -1.78338 -204.171 
A 37.3422 -1.10546 -202.349 
A 40.2854 -0.439979 -200.783 
A 43.3876 -0.917029 -199.475 
A 46.6437 -1.24845 -198.554 
A 48.955 -3.62302 -197.793 
A 51.4471 -5.64141 -196.664 
A 53.4026 -7.52599 -194.618 
A 56.0641 -8.81314 -192.939 
A 59.2159 -9.54764 -191.897 
A 62.3947 -9.02207 -190.811 
A 65.673 -8.26623 -190.319 
A 69.0233 -8.55205 -190.824 
A 72.1788 -8.28708 -192.061 
A 73.469 -5.90843 -194.12 
A 75.1409 -3.98293 -196.369 
A 78.0709 -2.42651 -197.112 
A 81.1861 -1.46518 -198.077 
A 84.0239 -1.28778 -199.941 
A 86.7068 -1.99963 -201.905 
A 89.4854 -2.7741 -203.705 
A 92.2678 -4.43276 -204.738 
A 94.7091 -6.22156 -206.287 
A 97.48 -8.17881 -206.513 
A 99.9036 -10.011 -204.987 
A 102.92 -11.188 -203.951 
A 106.199 -11.197 -203.05 
A 108.346 -9.76301 -200.838 
A 110.07 -7.9199 -198.559 
A 111.209 -7.34134 -195.409 
A 112.513 -6.33829 -192.433 
A 114.343 -6.22389 -189.57 
A 116.939 -7.02326 -187.525 
A 118.8 -9.00292 -185.481 
A 120.817 -11.3484 -184.07 
A 123.311 -13.1618 -182.639 
A 124.264 -16.021 -181.064 
A 123.808 -18.9411 -179.384 
A 123.77 -21.5648 -177.221 
A 122.971 -23.3486 -174.44 
A 122.991 -24.9855 -171.46 
A 123.633 -27.0045 -168.8 
A 124.041 -29.9324 -167.121 
A 125.535 -32.1987 -165.073 
A 127.901 -33.9172 -163.34 
A 130.764 -35.4615 -162.35 
A 133.638 -37.2261 -161.914 
A 135.915 -39.1695 -163.525 
A 138.167 -41.5827 -164.341 
A 139.308 -44.3479 -165.957 
A 140.097 -46.8563 -168.112 
A 141.156 -48.3285 -170.988 
A 141.321 -50.9673 -173.126 
A 140.974 -53.6709 -175.158 
A 140.814 -56.9958 -175.851 
A 141.221 -60.3672 -176.019 
A 142.222 -63.5062 -176.858 
A 142.852 -66.5099 -178.322 
A 145.172 -68.902 -178.996 
A 147.23 -70.8929 -177.163 
A 149.805 -71.9649 -175.219 
A 149.767 -72.9768 -171.974 
A 150.127 -72.491 -168.628 
A 149.446 -70.282 -166.134 
A 147.311 -68.8262 -163.925 
A 145.039 -66.3838 -163.267 
A 142.31 -64.3667 -163.486 
A 139.971 -61.9033 -163.627 
A 138.458 -58.8866 -164.038 
A 136.238 -56.3145 -163.91 
A 133.857 -54.0645 -164.821 
A 131.811 -51.9984 -166.584 
A 129.169 -49.8657 -166.747 
A 127.071 -47.2004 -166.983 
A 126.385 -43.8753 -166.8 
A 127.827 -40.8558 -167.404 
A 129.11 -38.3419 -169.299 
A 130.918 -35.4996 -169.763 
A 131.554 -32.4748 -168.347 
A 130.672 -29.1985 -168.565 
A 129.001 -26.3317 -167.826 
A 127.964 -23.2144 -166.949 
A 127.139 -19.946 -167.393 
A 125.959 -17.3601 -169.258 
A 124.169 -16.9868 -172.124 
A 122.145 -15.769 -174.57 
A 119.279 -15.2544 -176.327 
A 117.342 -14.7105 -179.067 
A 116.902 -13.3216 -182.139 
A 116.809 -13.0975 -185.53 
A 116.921 -13.3395 -188.92 
A 117.104 -14.1402 -192.219 
A 117.431 -13.2439 -195.482 
A 117.574 -12.2891 -198.743 
A 116.381 -10.1355 -201.087 
A 114.264 -7.77667 -202.319 
A 113.918 -4.51703 -203.222 
A 111.161 -2.71014 -204.056 
A 107.807 -2.68495 -203.497 
A 104.483 -3.17736 -204.013 
A 101.305 -4.26896 -203.491 
A 98.1175 -5.10544 -202.656 
A 95.0882 -6.14479 -201.515 
A 92.0718 -7.2834 -200.435 
A 88.7138 -7.67 -200.069 
A 85.4881 -7.81577 -201.133 
A 82.1661 -8.50843 -200.923 
A 78.9292 -7.8076 -201.691 
A 75.5551 -7.39232 -201.633 
A 72.6628 -5.73339 -202.298 
A 70.1288 -3.46836 -202.205 
A 68.1128 -0.819465 -201.513 
A 65.8336 0.503129 -199.365 
A 64.0626 1.46395 -196.626 
A 61.862 2.32798 -194.182 
A 59.1562 3.45273 -192.458 
A 56.0479 3.1089 -191.124 
A 52.793 3.12156 -190.141 
A 49.7034 1.76546 -189.722 
A 46.7501 0.322839 -190.592 
A 45.0978 -1.84899 -192.62 
A 43.0422 -3.98247 -194.288 
A 42.0784 -6.14862 -196.725 
A 42.4146 -7.75719 -199.702 
A 41.5837 -7.50256 -202.989 
A 38.8065 -6.91982 -204.862 
A 36.3024 -5.18361 -206.37 
A 34.2555 -3.16733 -208.188 
A 32.556 -0.420593 -209.25 
A 32.2234 2.82312 -210.213 
A 31.4071 6.12252 -210.3 
A 31.2718 9.06068 -208.595 
A 30.3883 11.4655 -206.359 
A 29.5397 13.5842 -203.839 
A 29.5012 14.8977 -200.704 
A 29.0397 15.4946 -197.388 
A 26.7835 15.0396 -194.886 
A 26.0235 15.1388 -191.573 
A 26.3209 15.447 -188.2 
A 25.4485 15.5374 -184.916 
A 25.4974 16.4482 -181.64 
A 23.987 17.0082 -178.646 
A 22.0724 17.4636 -175.873 
A 19.4618 17.1598 -173.717 
A 16.2218 16.561 -172.877 