###############################################################
snapshot: 1 
type:     linear 
num_bp:   421 
sequence: aaaaaaaaaaaaaaaaaaaaaaaaaaaaaaaaaaaaaaaaaaaaaaaaaaaaaaaaaaaaaaaaaaaaaaaaaaaaaaaaaaaaaaaaaaaaaaaaaaaaaaaaaaaaaaaaaaaaaaaaaaaaaaaaaaaaaaaaaaaaaaaaaaaaaaaaaaaaaaaaaaaaaaaaaaaaaaaaaaaaaaaaaaaaaaaaaaaaaaaaaaaaaaaaaaaaaaaaaaaaaaaaaaaaaaaaaaaaaaaaaaaaaaaaaaaaaaaaaaaaaaaaaaaaaaaaaaaaaaaaaaaaaaaaaaaaaaaaaaaaaaaaaaaaaaaaaaaaaaaaaaaaaaaaaaaaaaaaaaaaaaaaaaaaaaaaaaaaaaaaaaaaaaaaaaaaaaaaaaaaaaaaaaaaaaaaaaaaaaaaaaaaaaaaaaaaaaaaaaaaa 
dLK:      23.5294 
0 0 0 
0 0 2 
0.70130797909492 0.048799062697777 3.8723743669303 
1.5662581934064 -0.30991150143367 5.6396286943951 
1.7122243932937 -1.0781646055783 7.4804114182554 
1.5797635640209 -1.3887228306437 9.451707367004 
1.451781959411 -1.6903763490699 11.424681229908 
2.1281482879274 -2.1765916359041 13.242956039858 
2.0914947219732 -3.1220631402491 15.004983324146 
1.030276484141 -4.5362103207332 15.939864922863 
-0.26471914576989 -5.8935148194112 16.63319804365 
-1.5895178054625 -7.3916348807481 16.609857240401 
-2.9246456735922 -8.3220832710947 15.447231174701 
-3.5175633780354 -9.024523592492 13.670991835357 
-3.1898926113041 -8.7464841636187 11.717705900164 
-1.7077849281056 -8.6479773404873 10.378432507163 
-0.087850342400218 -9.4006553366235 9.4788282763103 
1.8954216743046 -9.5100099955511 9.2450042691463 
3.7957133285407 -8.9606410867253 9.5401066765516 
5.745779301971 -8.5242322892519 9.4577048515887 
7.3685610549865 -7.4532223729227 9.9262314156213 
9.0069558317401 -6.3111187402566 9.8201095622761 
10.971366984984 -5.9599049131971 9.9532924016117 
12.880875868784 -6.5362680090819 9.806386294219 
14.80451815859 -7.0248058076054 9.5595439147832 
16.797791477283 -7.1884811379543 9.5510666969038 
18.738090934125 -6.7096352833237 9.6281683523978 
20.721232922104 -6.5367366007377 9.4351556557271 
22.589646559534 -7.0189059362038 8.9092818957792 
24.492061172646 -7.2105524716184 8.3226898354164 
26.187683364168 -7.4260439075098 7.284215558086 
27.691001210671 -7.4236320528929 5.9651137290588 
29.379628896349 -8.0790495822558 5.1171960435705 
30.7174228446 -9.4642662540781 4.5773051989284 
31.855745033017 -11.047237021874 4.1318547037407 
33.439837335417 -12.19789498491 4.5400676745995 
34.731793136794 -13.035524977299 5.8164791298673 
35.838943896241 -13.510640658212 7.4128757865934 
36.329707276946 -14.686083776681 8.9547852454794 
36.724454954954 -16.251113791122 10.135825179015 
36.953875358175 -17.540797152656 11.647143512645 
37.100383947847 -18.759147973123 13.226433388324 
36.437947752265 -19.906052838196 14.72502856957 
35.209168912242 -20.623397960948 16.130559976966 
33.636574261646 -20.664528396036 17.3655718604 
31.736011193648 -20.459565713827 17.953662264559 
29.745801731659 -20.391035693764 18.1390535636 
27.865725304316 -19.780875628362 18.444040976354 
26.189426485229 -18.816123965993 17.934848970245 
24.918624721399 -18.004658840732 16.620852308327 
23.699265609223 -16.778609396262 15.61588160464 
22.712040306405 -15.554987069637 14.37970418887 
21.880949090306 -14.544943990774 12.866726869356 
21.140585410339 -13.267977039618 11.517202128182 
20.815406263579 -11.905167322774 10.089964166878 
20.208179253833 -11.027358445858 8.3985958053895 
19.157501135784 -10.185401932896 6.9196824466922 
17.626105310007 -9.8098090177786 5.6893342086293 
16.004684979911 -9.127386136128 4.7378642281505 
14.562984057232 -7.9557370692509 3.9970964415715 
12.750816633744 -7.1331060922266 3.798784805786 
11.578493335054 -5.733991592278 4.6161810985248 
11.370073053077 -4.1654442002863 5.8393818445745 
10.892468045323 -2.4763437501563 6.7979396810867 
9.990211675744 -0.9449890341515 7.7149381420033 
8.4812435898078 -0.00087700128172852 8.6268963565157 
6.9460548405646 -0.37923978581748 9.8516563768769 
5.7842729971517 -1.7769092701899 10.68639164076 
5.3062609470608 -3.4761358567515 11.626675367882 
5.0871527277806 -5.2090442157947 12.600852049702 
5.1979379377137 -6.3328737081986 14.251528853096 
5.8619388523786 -7.7878754109232 15.452392221841 
7.2291941594236 -8.952157500691 16.332767221942 
7.8912869378653 -10.427731999013 17.50933555937 
8.3330112889017 -11.800285538264 18.895328481282 
8.9883703145655 -13.211363673372 20.152055597286 
10.009310380429 -14.299744912185 21.483636485147 
10.843281857901 -15.075386760659 23.127677633555 
12.090663074996 -15.421209058317 24.652291367483 
13.290559193129 -14.447600728184 25.922069350118 
14.570187392546 -13.216214004214 26.841981523798 
15.338016641071 -11.886198740467 28.123190969327 
15.256024444682 -10.126606004245 29.070350239125 
14.927394840447 -8.2452508183355 29.664071762798 
14.129504594124 -6.4121917503882 29.72121726339 
12.564987777171 -5.220246390701 29.358514369839 
10.882451333512 -4.1734607895424 29.087754289751 
9.6325163018307 -3.0705196001336 27.982682731307 
8.4601773748902 -3.2584877183759 26.373245119312 
7.2827780075503 -4.0519529359401 24.964648768933 
6.2242192263304 -5.5013883480566 24.082271132767 
5.6160161739566 -7.2029875879441 23.225154411487 
5.3261034034373 -9.180815301561 23.160748505403 
5.8372939612339 -11.090434313631 22.857368475804 
6.0625299416931 -13.030887261912 22.428519891084 
6.1353413171529 -14.790787360151 21.481181436349 
6.2771021290645 -16.696943650323 20.892562655095 
6.239910184732 -18.673035052818 21.198633771445 
6.385622107368 -20.623791157081 21.614949345596 
7.0321344358149 -22.231293202643 22.613928315684 
8.3252521542897 -23.0797977077 23.881953028009 
9.6679094338933 -23.592601177041 25.272745619073 
10.521362858943 -24.248189098941 26.958515985383 
11.727967252556 -24.647104605373 28.502851524067 
13.519636014254 -24.351165792075 29.340910750578 
15.138286201368 -23.649814310524 30.283289480749 
16.994982930431 -23.456000829436 31.001003623594 
18.939409147017 -22.9887577713 31.030846761423 
20.899186483924 -22.726801362908 30.729762670431 
22.661446228894 -22.449652831532 29.825534113696 
24.076687123347 -21.609069943205 28.689526359092 
25.232175465681 -20.365973231633 27.631435032028 
25.6009490458 -18.494393602701 27.030439408773 
25.739171198146 -16.678228460545 26.204340859555 
25.710977372113 -14.678609218485 26.231322241247 
26.285470412307 -12.951638954538 25.402147076272 
27.137923743527 -11.244825575376 24.802054244448 
27.151815840274 -9.5311381591307 23.770995347464 
26.908636769752 -7.9172282164691 22.615072064267 
27.013578300406 -5.9882991680731 22.097172458746 
26.64409000342 -4.205830302238 21.268750379901 
26.540374375409 -2.4849172619409 20.254994306557 
26.64234236116 -0.96564680430485 18.958298580322 
26.900136837368 0.34781750787739 17.472245583737 
26.97580052769 1.3473126160591 15.741556549078 
27.73807234315 1.8201639824923 13.954001440943 
28.748349616008 2.2172649684632 12.27422447989 
29.904937191104 1.7555107639213 10.709268175157 
31.118399889343 1.662143687318 9.1221982746838 
32.874846264689 1.7095020274335 8.1668693689368 
34.754492025109 2.1841305784735 7.6752805632509 
36.375821163981 3.3272632546186 7.9293268349661 
37.912207877671 4.4637870775241 8.5190975242734 
39.590220944134 5.2724806231043 9.2473055289771 
40.94240687402 6.4828265030621 10.087933902212 
42.617718059023 7.1469414371751 10.955276849201 
44.240424710041 8.016361466364 11.736898200999 
45.159295465563 9.3229042273123 12.940485567359 
46.33562868177 10.768561861255 13.665960701236 
46.27434130421 12.644956553363 14.355443708119 
46.026225576622 14.298126371406 15.453381838631 
45.51459791828 15.225309105204 17.150016542204 
44.569693476805 15.704499024556 18.846345701793 
43.499784712027 15.814059492843 20.532552017414 
42.406710895034 15.241624789423 22.106562227331 
41.163542111298 14.313908056944 23.369049074559 
39.787469329578 13.182546390051 24.278138992057 
38.737051182613 11.645582278094 25.009140384039 
37.443134526607 10.123581077702 25.105535577471 
36.399546582054 8.5351673927847 24.482746554164 
35.781973533067 6.9251208380442 23.469655432531 
35.016603713428 5.4564246489271 22.348432643225 
34.416925188327 3.7149699103561 21.568867982634 
33.981877579299 1.816150449318 21.115857792615 
33.492281574879 -0.1229616533468 21.127690195395 
32.763637747656 -1.9775642912272 20.955855307738 
31.926796933531 -3.7249677714679 20.459590732076 
30.464560067103 -4.9426719608888 19.843912363505 
29.513655063787 -6.308937779839 18.735265717076 
28.241671123766 -7.8301059607651 18.474297861455 
27.32915845194 -9.5250988785769 17.931785527656 
26.107023979624 -11.108237579908 17.924092418701 
25.304763848045 -12.659091030747 18.899403781958 
24.476799830644 -14.144592315473 19.951906285028 
23.186913777197 -15.494551895299 20.668706886282 
21.86128126475 -15.991520013359 22.081406830211 
20.634479165188 -16.975645480048 23.316904169068 
20.245194912199 -17.720382948019 25.131793662722 
19.735920980916 -18.285451191614 26.981479566598 
19.052998190479 -19.225131836019 28.609551048085 
18.799680609762 -19.264128129399 30.593060436115 
18.854097202075 -19.809189529187 32.51658504083 
19.611863088238 -19.564995516947 34.351294866975 
20.343917820808 -18.051679960503 35.434794703222 
21.266662189093 -17.074515896856 36.915906860864 
22.525812214599 -16.164791772992 38.175646211575 
24.06176868808 -15.189198624351 39.00574001344 
25.202732644844 -14.083658426775 40.220640059085 
27.082113880698 -13.474292138997 40.531443691049 
28.853089187788 -13.177145006292 41.411983322867 
30.791321645483 -13.65664863933 41.527444164015 
32.550802179192 -14.227990769642 40.767314950241 
33.731549694078 -14.394591034447 39.161674997494 
34.3745204651 -14.61275295501 37.280453595312 
34.533799809213 -15.057682223007 35.33708846312 
34.300788048053 -15.514585645131 33.40397057173 
32.658059037132 -15.677504696622 32.274856414817 
30.737879925592 -15.902659707261 31.762784739376 
28.827175778751 -15.543320151739 32.231916647352 
26.993818660256 -15.336864869526 33.004042215191 
25.066369261905 -15.075560096612 33.469508253104 
23.360952987039 -14.118155291882 33.887756228954 
21.404146841366 -13.712957012352 33.969756610185 
19.515645081957 -13.352171101084 34.520569310601 
17.64440617308 -13.642592858956 35.16409098736 
15.661643030049 -13.515647885009 34.934885201593 
13.745383918516 -14.037540368311 35.170637727217 
11.819614167042 -14.421555400396 35.55003635589 
10.359294598703 -15.53020603047 36.349011035567 
8.8508587905633 -16.759758261345 36.81033816925 
7.3432210073406 -17.919927520615 37.42761898415 
5.8706497238105 -19.002446127407 38.239830336492 
4.3558078617795 -20.30628077089 38.312420662926 
2.6081780362239 -21.222994142373 38.637115269246 
1.1415839210119 -22.582783851303 38.645697152075 
0.2930411443311 -23.976917638859 37.489684116449 
-0.50091762865086 -24.678180403477 35.793258461796 
-1.5027511005176 -25.857083606139 34.525773971397 
-2.3372985196559 -27.142385320084 33.240655257293 
-3.2827478019759 -28.827921490034 32.725782967935 
-3.5865035510421 -30.291696445044 31.39721406645 
-3.4587543666375 -31.968097175453 30.313996296576 
-3.5583744119326 -33.312155311181 28.836300937458 
-3.1184968674904 -34.064631653829 27.036221189321 
-2.3524243481569 -35.207936020909 25.585018922462 
-0.77413323325649 -35.803708224505 24.510750502537 
0.8381647977782 -36.620344586267 23.654245913075 
1.8978646207582 -37.487460580165 22.196457815201 
3.0931433746929 -38.599940104867 21.041599379067 
3.752473166806 -40.383687110341 20.422300706619 
3.6469731399563 -42.374255759549 20.259493467452 
2.9887702928616 -44.204754671016 19.794689479523 
1.9545328550099 -45.692346906887 18.947681650798 
0.84702773497151 -47.263237208059 18.394747594356 
-0.9595788919377 -48.054577501645 18.726339263966 
-2.9231369506227 -48.219467507745 19.068758650189 
-4.8645988389477 -47.747720898195 18.978310474089 
-5.8155792161416 -46.13603240507 18.27255093762 
-6.7863942246678 -44.698448648198 17.277125821803 
-7.5344593076154 -43.028051416078 16.47079355865 
-8.6968875925798 -41.57033984263 15.747027401007 
-9.9379100355829 -40.119370618401 15.151585039141 
-11.178454620866 -38.907451152855 14.155442307925 
-12.222424703711 -37.555616059572 13.114928806477 
-13.109547110355 -36.614112688961 11.58961400659 
-14.564349613951 -35.98802387382 10.368318599619 
-16.228360160944 -34.95155033552 9.9723495302457 
-17.704931602763 -33.672937886343 10.402334392787 
-18.78543595798 -32.46480112056 11.574049329757 
-19.960853657433 -31.729361644239 13.015410494934 
-20.260113504777 -30.175406728806 14.238385418869 
-19.919871830021 -28.842486018377 15.69012850305 
-19.971866971276 -27.218425109439 16.856199971419 
-20.292992313712 -25.718524297117 18.139623544384 
-20.129622997287 -24.542553547507 19.749096521017 
-19.908250481812 -24.076173679515 21.681319082764 
-18.587252552124 -23.954293276666 23.17801866423 
-16.680259961719 -23.914577692052 23.779518400289 
-14.855826160795 -23.713066679493 24.573769379428 
-12.871196773119 -23.958401175487 24.541255095654 
-10.917915177848 -24.196110471605 24.899284843179 
-8.9196263372434 -24.121673168304 24.863218274258 
-6.9876718515826 -23.93778180125 25.34668061039 
-5.2625699852258 -23.989030121901 26.357322564953 
-3.9093763604148 -23.464402589587 27.733415936098 
-2.3232067701953 -23.744415634113 28.919020729424 
-0.69247711894143 -23.957711736647 30.057100505699 
1.0202974175623 -24.177017703175 31.066213125851 
2.332096941105 -24.277123007665 32.572586564957 
3.3413201634762 -24.14595153833 34.294289946222 
4.7608403540974 -24.287032929332 35.696095378346 
5.4280394145971 -24.243395386465 37.581020092631 
7.015911633115 -24.128557640777 38.791587773442 
8.5682336001467 -23.394335467793 39.816875202102 
10.440606041798 -23.317166265228 40.515635786222 
12.04851077286 -23.147809448726 41.692904083821 
13.277569878801 -22.356983186684 43.058190697456 
14.663734975329 -21.842901252438 44.405137648917 
16.396049565617 -21.039611881556 44.999958921989 
18.13088002264 -20.085755384171 45.28372126583 
19.270937173019 -18.480502302969 45.635050511927 
19.522626286359 -16.6259911391 46.340345438402 
19.094278287427 -14.913985391733 47.281384392322 
18.250004287943 -13.40495033909 48.286379229965 
17.254233056567 -12.080572777505 49.40640768011 
16.797912372053 -10.57399912852 50.640104268849 
16.599857064078 -8.6322594707475 51.076477041164 
17.072536420996 -6.8022766039329 51.730493044569 
17.778496185659 -4.9317002578379 51.67984776732 
17.800817290091 -3.1598596440252 50.752441379839 
17.318626519712 -1.5853138810241 49.61740935334 
16.977676755275 -0.40192393103339 48.041547213307 
17.13073784347 0.33753694499054 46.189583413415 
17.225342684879 0.49266290586045 44.197854049208 
16.839883824793 0.12010899224186 42.271036712606 
16.902587353868 -0.50896181869021 40.373580999743 
17.296298776495 -1.6145601556226 38.754123179031 
17.641634655724 -3.0857028497426 37.443977269579 
18.438345118422 -4.8702497204111 37.01895385256 
18.985394318352 -6.7921832542077 37.102072229132 
18.893961505805 -8.4383844515044 38.234177197237 
18.550055153431 -10.138406281102 39.229995554012 
18.563577389116 -12.064112148833 39.769878930425 
18.065076779002 -13.31258878462 41.250690610421 
17.320411224876 -14.623583348633 42.564755473975 
16.927576779088 -15.672479680371 44.221709783384 
15.689807994472 -16.481402942892 45.568398905335 
14.354560631918 -16.688243058912 47.042960415479 
13.413485237369 -17.777123801802 48.431742554454 
12.835638968056 -18.689213787422 50.115246503713 
12.06397673875 -19.031230543609 51.928410021532 
11.457783314306 -18.719342655679 53.808637528385 
11.081642199704 -17.463023942855 55.318664400236 
10.871969777955 -16.40215316658 57.001100334114 
10.699600813305 -15.140042436301 58.54297109541 
10.584317694142 -13.388962105219 59.50236021174 
10.238412665139 -11.674690756446 60.472733054356 
9.530098499563 -10.217208328014 61.644925877085 
8.4196118014661 -9.0396795562179 62.819764285098 
7.7242069626753 -7.3998695704151 63.729399003349 
7.8793483305258 -5.4112004289025 63.874747555379 
7.8238912193385 -3.4120013892147 63.863446735494 
6.9557382842236 -1.723643537738 63.234353541597 
5.9085947842096 -0.33126743824806 62.252121752278 
4.6273039952256 0.65246419307951 61.072899130552 
3.2931735729771 1.6226316891018 59.942027322568 
2.0921018207117 2.2351161427218 58.464769917786 
1.300850785188 2.5634604418069 56.65753118977 
0.57896769463063 2.947933664311 54.832410606152 
-0.25085618159718 3.761133908581 53.204498539374 
-1.1694082138201 4.6372432223567 51.658958299065 
-0.71505064289403 6.1006564527119 50.373664202384 
-0.14496058526455 7.9852831014538 50.022694515597 
1.1751303646329 9.3877494229415 49.483762144058 
2.9550960187003 10.189320501074 49.048783895129 
4.7569573014253 10.764999694513 48.399253769532 
6.5921750953951 11.490724674193 48.723751693356 
8.0321296075911 12.101488315494 49.970146003866 
9.5512398606573 11.92589448577 51.2591265491 
10.341739684533 11.276615687806 52.977715234902 
10.647448603185 10.125101694227 54.58412663291 
10.578761067144 8.42979224045 55.642997672426 
10.983208208616 6.7533943335522 56.655969817899 
10.556869148938 4.9468666267691 57.400746731355 
9.5512891532382 3.2566426058337 57.763998202518 
8.6572838564816 1.5257996771964 58.216698197832 
7.9038712056369 -0.32651728626665 58.252632087326 
7.6276079886303 -2.203868018329 58.884480853847 
6.9531286186324 -4.0072195206209 59.425776464977 
5.4924373066158 -5.2315173753475 60.031974166978 
4.4936499063276 -6.1763436432864 61.484464116148 
4.1039741916786 -7.092277431477 63.219173928498 
3.2858727268535 -7.871701765558 64.869388369319 
3.1410205559739 -8.9796040002596 66.528174216538 
3.4825130861047 -9.9802916553733 68.225821726702 
3.8065852567357 -10.584612630802 70.104590841543 
4.4759807551718 -10.786973506349 71.97834635994 
5.9220154929247 -10.541114944414 73.337955533466 
7.1406860342908 -10.194557426255 74.885450282476 
8.8951548242362 -9.4709943644449 75.516557056874 
10.792689527847 -8.8461778698916 75.421865997497 
12.781419111245 -8.6368638439528 75.388068325014 
14.708820285533 -8.6980571101577 74.857615596183 
16.563665043852 -9.4445464572405 74.905621608594 
17.659223614628 -10.909779587353 75.713608794397 
18.836102174112 -12.113743042702 76.793159096332 
19.438943042594 -13.7105700347 77.835620819809 
19.645304945929 -15.401512420262 78.883537139733 
20.294824154105 -16.755635506826 80.204323066613 
21.297107838718 -17.82950662465 81.561610154101 
22.326694725398 -18.984936984524 82.828469075315 
23.568379119605 -20.202225680758 83.816612837731 
24.744121451492 -21.519789608856 84.755577834089 
25.603120058877 -23.195954019222 85.428329097139 
27.076408775376 -24.525428585164 85.677161844883 
28.582740591196 -25.821881673641 85.901157045777 
29.924442896888 -27.302344250378 85.990965073151 
31.389088646485 -28.610294638299 85.611388189071 
32.731256590501 -29.687306162216 84.59225552479 
34.126189078128 -30.4393770236 83.372192913929 
35.245377513639 -31.01341213411 81.817232805849 
36.437600333541 -31.311554782938 80.239349505774 
37.443208737558 -30.527134691826 78.6987532386 
38.060438983829 -29.707885081672 76.981820828937 
38.401237708512 -28.221469131534 75.687825522752 
38.325696618201 -26.478348135741 74.710163649862 
38.563130799227 -24.993664723717 73.39132318349 
38.042047808275 -23.412710903906 72.282694509783 
36.901543954942 -22.140284165599 71.243376870092 
35.342929001242 -20.929006352681 70.921623103935 
34.117229493662 -19.502571144681 71.602022482607 
33.308745933748 -18.786014040083 73.285144655594 
33.007995562026 -17.880321008169 75.04277639912 
32.730182232797 -16.711647666606 76.641845620518 
32.077946928006 -15.089140608587 77.612443350714 
30.853076819035 -14.122543274711 78.863595943444 
29.643419941707 -13.158421429795 80.131349589579 
28.190459436771 -12.67028713671 81.41611831702 
26.712176104159 -11.993950131487 82.581127606205 
25.131899202877 -11.600586194422 83.742157204574 
23.347591577862 -11.389042990898 84.620505525207 
21.461964578302 -10.736625598143 84.757481304677 
19.485843802073 -10.993217526081 84.586872804676 
17.870308227227 -11.518031154051 83.531119300157 
16.848978094407 -12.552043257983 82.157181991283 
15.754866842393 -13.472570051322 80.758771825788 
14.439033723845 -14.058221858445 79.371113667254 
13.722453474153 -14.069350934707 77.503926239754 
12.950243199659 -13.581570138816 75.724667633726 
13.114910305411 -12.948301471308 73.834732307045 
12.799365288128 -12.034528298234 72.083889672701 
11.729003256965 -10.599203241976 71.192729134344 
10.450267930434 -9.2616936089511 70.433845779507 
9.1478915249666 -7.7665952224404 70.17212739434 
7.3666157575356 -6.8733954937219 70.343156295349 
5.4067113066092 -6.6355151939305 70.662824101376 
3.4852182805025 -6.9928322057933 71.087310972382 
1.8374116029931 -7.3262356721234 72.170627769166 
0.45072019218579 -8.069058662098 73.405658512411 
-0.61228804529741 -8.9170148098726 74.872281796862 
-1.7286895414063 -9.6029510754377 76.383287799189 
-2.3917684004883 -10.852149697227 77.797440983946 
-2.9666406024067 -12.365627023995 78.971710260058 
-3.9916663866925 -13.659687656857 80.100749329367 
-4.4429090274822 -14.979231424788 81.534340736863 
-3.9251628087218 -15.442741441731 83.409733313673 
-3.3919222133724 -15.810623666643 85.301905910469 
-2.8946053986713 -16.19690284651 87.200185231595 
-2.7878420787855 -16.199156212504 89.197332325795 
-2.2772130936789 -16.305928474501 91.128098423393 
-1.4495275529548 -16.819795492997 92.874774504691 
1 0 0 0 1 0 0 0 1 
0.93273779260689 0.080476554997398 -0.35145943484074 -0.083916564856251 0.99645781996315 0.0054610600638684 0.35065398954746 0.024399531348888 0.93618718346515 
0.89383238195841 0.21402126820865 -0.39402864073175 -0.1184438882052 0.96022215114497 0.25287242988778 0.43247510715576 -0.17935528206573 0.88362716373238 
0.91574119263893 0.39138941755611 0.090732529609406 -0.39508421282918 0.83621834219188 0.38032531989733 0.072983099943605 -0.3841265520723 0.92039136193017 
0.81439247684444 0.56233974340794 0.14331401411959 -0.57652270192618 0.81219604172574 0.08921414668528 -0.066230414636398 -0.1552791125327 0.98564797437429 
0.68709996716304 0.71023625226347 0.15316037704082 -0.72373946441031 0.68761599361562 0.058184473694262 -0.063990802304932 -0.15082675921313 0.98648693145203 
0.5384729122888 0.84227408675122 0.024925599664241 -0.77180248130174 0.48111644796203 0.41574979658069 0.33818316425822 -0.24310764341707 0.9091374049749 
0.59166583981757 0.70518577066 0.39069753371584 -0.80597497667029 0.52842590537989 0.26677780924351 -0.01832678297711 -0.47273575217252 0.88101364214386 
0.10910454507482 0.48991412429478 0.86491638269864 -0.84056538185145 0.5099324355233 -0.18280795943883 -0.53060911891611 -0.70707359024203 0.46744079935893 
-0.12816979798273 0.54540332108948 0.82831619580305 -0.75121174279493 0.49190074386168 -0.44013018037318 -0.64749781495544 -0.67865224933901 0.34666656039346 
-0.24351064690702 0.2005537760116 0.94893664054583 -0.70846996595626 0.63141686181352 -0.31525077946851 -0.66239932984633 -0.74906003066847 -0.011670401624871 
-0.67141853063542 0.038699789296462 0.7400672152094 -0.32180048268335 0.88434652401294 -0.33819472912952 -0.66756393406485 -0.46522419517329 -0.58131303284996 
-0.91931097134468 -0.14705218696029 0.36502464612064 -0.25880395457717 0.92467294381799 -0.27928562452478 -0.29645885222155 -0.35122016069864 -0.888119669672 
-0.94462033096556 0.30746874452523 -0.11469699850736 0.284342043117 0.94134823000738 0.18169510829414 0.16383538336563 0.13901971443666 -0.97664296759634 
-0.53329774097435 0.64912537612954 -0.54242950282626 0.40796166893798 0.75908520438343 0.5073035867836 0.74105384159924 0.049253411565676 -0.66963669650053 
-0.17304140986359 0.5794593565592 -0.79641918897552 0.56036564400515 0.72290788668343 0.40422089553806 0.80996729285269 -0.3763389980681 -0.44980211542631 
-0.038950457829274 0.73681783420783 -0.67496840002193 0.12304831885785 0.67387674602704 0.72852538898124 0.99163600835243 -0.0546773294638 -0.11691200358201 
-0.20813597856312 0.91108410465801 -0.35581620068105 -0.23216873527199 0.30736656412726 0.92283447790967 0.95014582711802 0.27468445441292 0.14755120370265 
-0.22189282549102 0.96458134326896 -0.142640829404 0.0086167750898442 0.14822170080462 0.98891661862749 0.97503298671515 0.21820439873667 -0.041200912481429 
-0.57969370694255 0.78856708462703 0.20522465537559 -0.07483349284347 -0.30231836335874 0.95026499226528 0.81139087650777 0.53550495816464 0.23426328201627 
-0.52905098865599 0.78816643910979 0.31448166188684 0.22140616585532 -0.22955062039495 0.94777941652979 0.8191973883768 0.57105181633305 -0.053060926672598 
-0.18361150880858 0.82332174121479 0.53705504771493 0.03948441573392 -0.53972541385747 0.84091465592564 0.98220557662192 0.17560691352973 0.066591419667804 
0.24258475715181 0.61178618732829 0.75290789383026 -0.17203659863354 -0.73666074716917 0.65401403066812 0.95475444190022 -0.28818154794241 -0.073453053696365 
0.25779615395033 0.65724805356678 0.70821334292083 -0.091876157006749 -0.71299207634878 0.69512665812607 0.96182114490278 -0.24426889926172 -0.1234211897179 
0.035931843290613 0.38992880451101 0.92014370076111 -0.073649656378644 -0.91720124507733 0.39155791927108 0.99663665934635 -0.081837665174478 -0.0042386089397033 
-0.17064439661725 0.56103180990403 0.8100146901007 0.1723078476081 -0.79241401435839 0.58514103898213 0.97014972842124 0.23942292731529 0.038550827746999 
0.046486477786385 0.45788040548401 0.8877975792132 0.12093788183208 -0.88480056829989 0.45000220341035 0.99157099398933 0.086449341293034 -0.096506348335304 
0.34210619573417 0.39657787111441 0.85187401825778 -0.10109881654457 -0.88577885226867 0.45296230987456 0.93420681871499 -0.24108466773308 -0.26293687997397 
0.30852876513455 0.30717759612231 0.90025103472591 0.0038289735990126 -0.94681562397671 0.32175380829878 0.95120730655611 -0.09582326770731 -0.29329603018139 
0.48833838758391 -0.22309876189287 0.84365429036651 -0.20674129997851 -0.96882289542838 -0.13652923561259 0.84781109576081 -0.1077457179457 -0.51923713866519 
0.46114727321512 -0.71590288647428 0.52423873334966 -0.47154220967236 -0.69819882761082 -0.53867090288987 0.75165892325148 0.0012059273084554 -0.65955091451362 
0.0049802984813484 -0.78635760044911 0.61775150412035 -0.53582584056484 -0.52368758794426 -0.66230052001799 0.84431384283927 -0.32770876468144 -0.42395884274414 
-0.43924640208224 -0.66123253960914 0.60813989083093 -0.59969945494679 -0.28821037730877 -0.74652216453905 0.66889697412556 -0.69260833591113 -0.26994542232104 
-0.53772182211122 -0.5632292111842 0.62739787829911 -0.62202161607533 -0.23732623695035 -0.7461671169316 0.56916109420834 -0.79148538389778 -0.22272524759389 
-0.5695137829527 -0.57600369533413 0.58640753234276 -0.21981115848831 -0.58070328566896 -0.78387929467317 0.79204615120013 -0.57532898151815 0.20410648542945 
-0.70062982647623 -0.65718668183063 0.27789118639557 0.30303530829618 -0.62665753341585 -0.71796235119886 0.64597790068835 -0.41881499619475 0.63820572763386 
-0.56827616971117 -0.80838837751204 0.15352662974825 0.60878279698273 -0.5385856510726 -0.58250236270472 0.55357537972374 -0.23755784045607 0.79819832836305 
-0.57699754891032 -0.72760710197445 -0.37102794195023 0.77901325700619 -0.3537955256458 -0.51765535971495 0.24538169035218 -0.58772155923477 0.77095472944302 
-0.44667792009879 -0.60799245561772 -0.65637185315045 0.87265251009381 -0.13422159806206 -0.46953398092219 0.19737383900403 -0.7825150072207 0.5905199667676 
-0.40218904777997 -0.72569601656983 -0.5582197250013 0.90834219294949 -0.23988434354972 -0.34259299792529 0.11471020161065 -0.644841680767 0.75565916681533 
-0.083979222165934 -0.79272791625001 -0.60376314978833 0.99377125060673 -0.022085523881198 -0.10922880161585 0.073254294836178 -0.60917541023322 0.7896449378393 
0.20900022265952 -0.8189848425502 -0.53439941485868 0.92011601367645 -0.020399394371814 0.39111428775414 -0.33121809779123 -0.57345243253673 0.74929759062289 
0.1588038397699 -0.92868737861642 -0.33514339210689 0.77285637802403 -0.094306662091339 0.62753427988658 -0.61438942001138 -0.35867256137564 0.70276570369812 
0.064037804462238 -0.99677572158567 0.048345842189557 0.61452068787661 0.077557931152898 0.78507903518496 -0.78629732529834 -0.020565217544276 0.61750594171719 
0.011200964038461 -0.93243188148982 0.36117215394597 0.31119052772417 0.34650881822365 0.88492490887533 -0.95028153399893 0.10248134110467 0.29404520207959 
0.030073070006767 -0.7884937200831 0.61430714129814 0.094139177884788 0.6140875853468 0.78360337716865 -0.99510473099445 0.034265010031429 0.092695649520359 
-0.10578458832961 -0.68584986198875 0.72001360242842 0.32424956084666 0.66070881669405 0.67699784477759 -0.94003821367149 0.30508003270087 0.15249370637687 
-0.52138201818496 -0.57144544618383 0.63372777527038 0.16020723577859 0.66390033854846 0.73045874769177 -0.83814940954317 0.48237583118458 -0.2545960030547 
-0.77191143432723 -0.35628520041124 0.52651077246605 -0.020456217050268 0.84168993316378 0.53957353492804 -0.6354008819154 0.40573256263045 -0.65699833095865 
-0.74732119847471 -0.23325732094368 0.62217525548394 0.26420042619009 0.75484548892792 0.60033859000247 -0.60967955608771 0.61302472223504 -0.50248535184356 
-0.83496236354015 -0.13457994751771 0.53359730996097 0.24327844507915 0.77947119136785 0.57726965968034 -0.4936126514093 0.61181116331243 -0.61808870788501 
-0.84995752112576 0.080543023291009 0.52065826957891 0.32387352456283 0.85934048322483 0.39577755618298 -0.41554560804924 0.5050215394318 -0.75648865975699 
-0.74516391867636 0.22963833766524 0.62609661249462 0.55470365029369 0.73457816826296 0.39076690630385 -0.37018183998374 0.6384834755777 -0.67476237058722 
-0.60414729780325 0.50306655221553 0.61800492441324 0.78010939821622 0.53161213582884 0.32987552781954 -0.16258957337961 0.68140485842227 -0.71361898065197 
-0.54105348657322 0.65117142133299 0.53220006079118 0.78427033880267 0.61914350028188 0.039766339195925 -0.30361350487306 0.43890443845771 -0.8456841807441 